<VTKFile type="UnstructuredGrid" version="0.1" byte_order="LittleEndian">
  <UnstructuredGrid>
    <Piece NumberOfPoints="1152" NumberOfCells="384">
      <PointData Scalars="scalars">
        <DataArray type="Float32" Name="Tracer" Format="ascii">
          0.0382123291
          0.0114748683
          0.0164768267
          0.0068580373
          0.0388919152
          0.0126270056
          0.0871152878
          0.0151589578
          0.0646808296
          0.0139949182
          0.0753361061
          0.0199003518
          0.1344635934
          0.0225215945
          0.1172676459
          0.0222813021
          0.1115926951
          0.0268004797
          0.1812128574
          0.0296425372
          0.1693765819
          0.0304082744
          0.1473623812
          0.0335842371
          0.2272586077
          0.0366363153
          0.2208073586
          0.0384129174
          0.1825644672
          0.0402549356
          0.2724963427
          0.0435637869
          0.2713622153
          0.0463509858
          0.2174313962
          0.0475381613
          0.3187139928
          0.0527672768
          0.3204504251
          0.0582106039
          0.2594522238
          0.0705045983
          0.3963639736
          0.0863780677
          0.3568221331
          0.0042707087
          -.0016639499
          0.0044286586
          -.0006458865
          0.0035059252
          -.0000827320
          0.0073789703
          -.0030186125
          0.0071814172
          -.0010108026
          0.0054762065
          -.0002012801
          0.0102631943
          -.0045016916
          0.0108571695
          -.0014681239
          0.0073002446
          -.0003952426
          0.0130898654
          -.0060143047
          0.0144130094
          -.0019387223
          0.0090839593
          -.0005852125
          0.0158830136
          -.0074955020
          0.0179085024
          -.0024036597
          0.0108986078
          -.0006940268
          0.0191724394
          -.0086807981
          0.0214368626
          -.0027422889
          0.0143630104
          0.0009080244
          0.0328702666
          -.0088316109
          0.0269344375
          -.0003691447
          -.0004952252
          -.0003585347
          -.0004380734
          -.0003867480
          -.0003869952
          -.0004884658
          -.0005924029
          -.0005080407
          -.0005335942
          -.0004822887
          -.0004599875
          -.0006503894
          -.0007154618
          -.0006988755
          -.0006310474
          -.0006037754
          -.0005309788
          -.0008105757
          -.0008380534
          -.0009012837
          -.0007270502
          -.0007203562
          -.0005953361
          -.0009360035
          -.0009471814
          -.0010922416
          -.0008110167
          -.0007642673
          -.0006132255
          -.0006708280
          -.0011967956
          -.0010788912
          -.0004655461
          -.0004095781
          -.0003541946
          -.0004771755
          -.0004789848
          -.0004229635
          -.0005192374
          -.0004844902
          -.0004566652
          -.0005529554
          -.0005301727
          -.0004610573
          -.0005819718
          -.0005271655
          -.0005183638
          -.0006029198
          -.0005874957
          -.0004959556
          -.0006353935
          -.0005620838
          -.0005819364
          -.0006356228
          -.0006255197
          -.0004865238
          -.0006508566
          -.0005419935
          -.0006360046
          -.0005572970
          -.0005025573
          -.0004184127
          -.0005797411
          -.0005771702
          -.0005022472
          -.0005916914
          -.0005806984
          -.0005253360
          -.0006536742
          -.0006137279
          -.0005305497
          -.0006287341
          -.0006105704
          -.0005665016
          -.0006797870
          -.0006380102
          -.0005100841
          -.0006063177
          -.0005749527
          -.0006049742
          -.0006593774
          -.0005887484
          -.0005055442
          -.0006742511
          -.0006774315
          -.0005714999
          -.0006751154
          -.0006567686
          -.0006184510
          -.0007269267
          -.0006834621
          -.0005407570
          -.0006424288
          -.0006105973
          -.0006470694
          -.0007416129
          -.0006575214
          -.0005875021
          -.0007364344
          -.0007433165
          -.0005730951
          -.0006798090
          -.0006451886
          -.0006958205
          -.0007212592
          -.0006066696
          -.0006725045
          0.3465357125
          0.0867734402
          0.3914519846
          0.0662652105
          0.2532331645
          0.0544135943
          0.3071835935
          0.0539065376
          0.3247688115
          0.0516153239
          0.2187815160
          0.0493821390
          0.2604922950
          0.0475544631
          0.2797805071
          0.0450249165
          0.1843107343
          0.0409217067
          0.2114505768
          0.0393443294
          0.2332681566
          0.0373190716
          0.1482617408
          0.0320272259
          0.1616069376
          0.0307194013
          0.1855742484
          0.0293627214
          0.1116083562
          0.0230051242
          0.1111417487
          0.0219743736
          0.1371466517
          0.0212925132
          0.0745555833
          0.0139589943
          0.0605498292
          0.0134253334
          0.0881612897
          0.0133684445
          0.0382587574
          0.0066572386
          0.0165951364
          0.0108629838
          0.0387310721
          0.0242427699
          -.0083923275
          0.0318342149
          -.0035207253
          0.0131030204
          -.0011786007
          0.0209856164
          -.0083269766
          0.0219778791
          -.0032758424
          0.0112249432
          -.0007258022
          0.0176811367
          -.0068986700
          0.0189055987
          -.0026788975
          0.0093000811
          -.0006662186
          0.0140197854
          -.0055862144
          0.0154491942
          -.0021665115
          0.0072049708
          -.0006154544
          0.0102955671
          -.0042715939
          0.0118660172
          -.0016549787
          0.0050817030
          -.0005535042
          0.0066015162
          -.0029076093
          0.0082426416
          -.0011462045
          0.0031414810
          -.0002890578
          0.0048519564
          -.0009754385
          0.0049194144
          -.0013277120
          -.0011538446
          -.0013458722
          -.0010011268
          -.0010268949
          -.0006714003
          -.0010955479
          -.0010072456
          -.0013610816
          -.0009007584
          -.0008624956
          -.0005915241
          -.0009426387
          -.0008687983
          -.0011422636
          -.0007893685
          -.0007439614
          -.0005155485
          -.0008003438
          -.0007328551
          -.0009567804
          -.0006792438
          -.0006282757
          -.0004359009
          -.0006484519
          -.0005897768
          -.0007709173
          -.0005568553
          -.0004931081
          -.0003272160
          -.0004079010
          -.0004248341
          -.0005671122
          -.0007500277
          -.0005698993
          -.0006349082
          -.0006749094
          -.0006625460
          -.0005186449
          -.0006529420
          -.0005811329
          -.0006387421
          -.0006614241
          -.0005842604
          -.0004732300
          -.0005814860
          -.0005296369
          -.0005667761
          -.0006026236
          -.0005208621
          -.0004261130
          -.0005035744
          -.0004738200
          -.0004996253
          -.0005304585
          -.0004425357
          -.0003470129
          -.0004049882
          -.0003815458
          -.0004281773
          -.0007082083
          -.0006140159
          -.0005464266
          -.0007152437
          -.0006626873
          -.0005516337
          -.0006281338
          -.0006329126
          -.0005899731
          -.0007074837
          -.0005931368
          -.0005045952
          -.0005650877
          -.0005746824
          -.0005357879
          -.0006348701
          -.0005209020
          -.0004206420
          -.0004737748
          -.0004715555
          -.0004824020
          -.0007548222
          -.0006520115
          -.0005794993
          -.0007579671
          -.0007068022
          -.0005835640
          -.0006666297
          -.0006675494
          -.0006308912
          -.0007351908
          -.0006167638
          -.0004913099
          -.0005698598
          -.0005531642
          -.0005733315
          -.0007897035
          -.0006787165
          -.0006146274
          -.0007728823
          -.0007229981
          -.0005563064
          -.0006583148
          -.0006268563
          -.0006638547
          -.0007533239
          -.0006025334
          -.0006608969
          -.0009202146
          -.0008302695
          -.0006122129
          -.0009789832
          -.0008350211
          -.0006714886
          -.0008657596
          -.0008430729
          -.0006800297
          -.0009857129
          -.0008137127
          -.0006610779
          -.0008643239
          -.0008379762
          -.0006731974
          -.0009835415
          -.0008129069
          -.0006607528
          -.0008653405
          -.0008377621
          -.0006730372
          -.0009830045
          -.0008150390
          -.0006603772
          -.0008769076
          -.0008196617
          -.0006853258
          -.0009109937
          -.0007559900
          -.0004035890
          0.0004948399
          0.0005911596
          -.0009096304
          0.0035124628
          0.0053115324
          0.0134047968
          0.0572732612
          0.0456045046
          0.0057381196
          0.0936969891
          0.1247916147
          0.2917479873
          0.6561015844
          0.5490213037
          0.1531662792
          -.0010027366
          -.0008417995
          -.0007426788
          -.0010181667
          -.0009052163
          -.0007007610
          -.0009475535
          -.0008567678
          -.0007843255
          -.0010257161
          -.0008834744
          -.0006914362
          -.0009470910
          -.0008519893
          -.0007780627
          -.0010232098
          -.0008821911
          -.0006888012
          -.0009285827
          -.0008344925
          -.0007790708
          -.0009473641
          -.0007826966
          -.0004063158
          0.0005926943
          0.0005797104
          -.0007897471
          0.0036029168
          0.0048635122
          0.0132449055
          0.0499505624
          0.0466117114
          0.0050208503
          0.0943615139
          0.1100768223
          0.2915712595
          0.6010681987
          0.5860210657
          0.0876072496
          -.0010476100
          -.0008744803
          -.0007774297
          -.0010558887
          -.0009458462
          -.0007251039
          -.0009904691
          -.0008888138
          -.0008200877
          -.0010627266
          -.0009225378
          -.0007131578
          -.0009708620
          -.0008662895
          -.0008147047
          -.0009842395
          -.0008193495
          -.0004246340
          0.0005957119
          0.0005821814
          -.0008237776
          0.0036461886
          0.0050137481
          0.0135884881
          0.0515762232
          0.0481088199
          0.0051308465
          0.0969097614
          0.1141574085
          0.3014378250
          0.6266955137
          0.6086915731
          0.0893045664
          -.0010783928
          -.0008940822
          -.0008028440
          -.0010772394
          -.0009719575
          -.0007362496
          -.0010006189
          -.0008899329
          -.0008468585
          -.0010081524
          -.0008450223
          -.0004370461
          0.0005859130
          0.0005763777
          -.0008495405
          0.0036304544
          0.0050943703
          0.0137276482
          0.0525539406
          0.0488803647
          0.0052118092
          0.0979113802
          0.1168320626
          0.3067614138
          0.6451644301
          0.6213535666
          0.0915522352
          -.0010733174
          -.0008855835
          -.0008181005
          -.0010132121
          -.0008800277
          -.0004542201
          0.0005669096
          0.0005567205
          -.0008688358
          0.0035594921
          0.0050943098
          0.0136550134
          0.0527128018
          0.0488895737
          0.0052115819
          0.0973862410
          0.1176860407
          0.3072992861
          0.6535881758
          0.6243110895
          0.0923797488
          0.0004921444
          0.0005209996
          -.0008909333
          0.0036840923
          0.0050145364
          0.0136327557
          0.0520642065
          0.0482107773
          0.0051523224
          0.0955500156
          0.1166815087
          0.3031301200
          0.6518068314
          0.6175417304
          0.0917709842
          0.0512737259
          0.0519729741
          0.0052234023
          0.1051304638
          0.1153442636
          0.3038594723
          0.6394357085
          0.6032529473
          0.0912026167
          0.6190631390
          0.6676256061
          0.1581958830
          0.1498788595
          0.5425281525
          0.6724891663
          0.2973922491
          0.1108086631
          0.0625661016
          -.0079750530
          0.0257205423
          0.0481642894
          0.0097314445
          -.0009065154
          -.0005410875
          -.0013499488
          -.0009223229
          -.0008744991
          -.0010060655
          -.0009593681
          -.0006936114
          -.0008340480
          -.0008550816
          -.0007490405
          -.0009570834
          -.0008231188
          -.0006660345
          -.0008251200
          -.0008402991
          -.0006880066
          -.0009509696
          -.0008199576
          -.0006663548
          -.0008249952
          -.0008401691
          -.0006864597
          -.0009506249
          -.0008193734
          -.0006651821
          -.0008192992
          -.0008361369
          -.0006853276
          -.0009399654
          -.0008025327
          -.0006320697
          -.0007274072
          -.0007692078
          -.0006640765
          0.0795671195
          0.5762699246
          0.6116358042
          0.3035156131
          0.0963118374
          0.0682642460
          -.0110642510
          0.0266853515
          0.0363866985
          0.0097791869
          -.0014919937
          -.0001562708
          -.0012181450
          -.0008815737
          -.0008899505
          -.0010169529
          -.0009812895
          -.0007302236
          -.0009116472
          -.0008624188
          -.0008156193
          -.0009979685
          -.0008987657
          -.0006978028
          -.0009130552
          -.0008472073
          -.0007931025
          -.0009926156
          -.0008975224
          -.0006961420
          -.0009091872
          -.0008432170
          -.0007927340
          -.0009819968
          -.0008841687
          -.0006656507
          -.0008451731
          -.0007760055
          -.0007846461
          0.0827560276
          0.5987331867
          0.6391049623
          0.3139849901
          0.1001752838
          0.0698066503
          -.0114228120
          0.0274535716
          0.0376712084
          0.0099874195
          -.0015521493
          -.0002035118
          -.0012653245
          -.0009252406
          -.0009304753
          -.0010577656
          -.0010244420
          -.0007552315
          -.0009533091
          -.0008943403
          -.0008534186
          -.0010343840
          -.0009390696
          -.0007207417
          -.0009508064
          -.0008747827
          -.0008302839
          -.0010184562
          -.0009244980
          -.0006889737
          -.0008855867
          -.0008053539
          -.0008219833
          0.0847351477
          0.6111584902
          0.6578323841
          0.3193851411
          0.1024133712
          0.0702049211
          -.0116540790
          0.0277414937
          0.0383628085
          0.0100233583
          -.0016045762
          -.0002472552
          -.0012955955
          -.0009551388
          -.0009673854
          -.0010822321
          -.0010521832
          -.0007673350
          -.0009773714
          -.0009090251
          -.0008799976
          -.0010443805
          -.0009518007
          -.0007022336
          -.0009131425
          -.0008233166
          -.0008483152
          0.0853690431
          0.6140513420
          0.6662646532
          0.3198004067
          0.1030482873
          0.0695092082
          -.0117041413
          0.0275974497
          0.0384521484
          0.0099080577
          -.0016324016
          -.0002799017
          -.0013008829
          -.0009636956
          -.0009889274
          -.0010640069
          -.0010517660
          -.0007225742
          -.0009241927
          -.0008395107
          -.0008839815
          0.0846798867
          0.6073740125
          0.6642985940
          0.3153214753
          0.1020764410
          0.0678925961
          -.0115065407
          0.0271556601
          0.0379529074
          0.0103761218
          -.0016722550
          0.0005320945
          -.0011213691
          -.0005568022
          -.0009283337
          0.0840885639
          0.5928834677
          0.6518229842
          0.3152469695
          0.1010367349
          0.0798644125
          -.0053341519
          0.0368370786
          0.0390755199
          0.1555076838
          0.6677137613
          0.6217792034
          0.6235504746
          0.1519435793
          0.7713572979
          0.1276475042
          0.4819601476
          0.0848106667
          0.5904330015
          0.0889049172
          0.6769559979
          0.1030267030
          0.4483175278
          0.0822463483
          0.5607267022
          0.0838997513
          0.6412747502
          0.0978218615
          0.4244760871
          0.0775520131
          0.5271666050
          0.0788979679
          0.6058140993
          0.0921161175
          0.3983702362
          0.0722935796
          0.4915426970
          0.0733786449
          0.5677717328
          0.0859794766
          0.3706831932
          0.0667692125
          0.4540726840
          0.0676356331
          0.5274911523
          0.0795703605
          0.3418758810
          0.0616401918
          0.4167359769
          0.0637797117
          0.4848554730
          0.0758454949
          0.3184722662
          0.0685754120
          0.4100112915
          0.0839839876
          0.4346115589
          0.0380622074
          -.0185813829
          0.0607274957
          -.0057010744
          0.0233379062
          -.0031811486
          0.0345135331
          -.0193712246
          0.0446225144
          -.0061424589
          0.0213740505
          -.0026488060
          0.0326855667
          -.0182483420
          0.0421063453
          -.0057742530
          0.0201363452
          -.0025276183
          0.0305450931
          -.0171505325
          0.0395642668
          -.0054348051
          0.0187411997
          -.0024048351
          0.0282933023
          -.0159895606
          0.0368242115
          -.0050799148
          0.0173253566
          -.0022047870
          0.0264005493
          -.0145436646
          0.0340255797
          -.0046041310
          0.0172139946
          -.0006573237
          0.0326046161
          -.0119805187
          0.0328817852
          -.0023754267
          -.0017240625
          -.0024358754
          -.0013923572
          -.0017514327
          -.0010227286
          -.0021721055
          -.0016516531
          -.0027292324
          -.0013472346
          -.0016275945
          -.0009554065
          -.0020543456
          -.0015498078
          -.0025669986
          -.0012707359
          -.0015384400
          -.0009004463
          -.0019378534
          -.0014529107
          -.0024217821
          -.0011947152
          -.0014450571
          -.0008378674
          -.0017847642
          -.0013399040
          -.0022631248
          -.0011014527
          -.0012774705
          -.0007110888
          -.0012984732
          -.0012992065
          -.0019483068
          -.0010060590
          -.0007442392
          -.0009227849
          -.0008383669
          -.0009320082
          -.0006536117
          -.0009173880
          -.0007219177
          -.0009545016
          -.0008223403
          -.0008597001
          -.0006145471
          -.0008654696
          -.0006789930
          -.0008942604
          -.0007758606
          -.0008094670
          -.0005759437
          -.0008041521
          -.0006319050
          -.0008420201
          -.0007135944
          -.0007385830
          -.0004903310
          -.0006962152
          -.0005310233
          -.0007818829
          -.0008524752
          -.0007676292
          -.0007257700
          -.0008325780
          -.0008465533
          -.0006458020
          -.0007751525
          -.0007421434
          -.0007676891
          -.0008154353
          -.0007782630
          -.0006034748
          -.0007226184
          -.0006893658
          -.0007180176
          -.0007513709
          -.0007114658
          -.0005143022
          -.0006133812
          -.0005780120
          -.0006734268
          -.0008491902
          -.0007691237
          -.0007226417
          -.0008317446
          -.0008430736
          -.0006413653
          -.0007625261
          -.0007339711
          -.0007642188
          -.0007952818
          -.0007521888
          -.0005448337
          -.0006491806
          -.0006143286
          -.0007106955
          -.0008376061
          -.0007568054
          -.0007222186
          -.0008050094
          -.0008174664
          -.0005730882
          -.0006858440
          -.0006480888
          -.0007586581
          -.0007146519
          -.0006125037
          -.0006996371
          0.4273345172
          0.0943711698
          0.4090340436
          0.0729694813
          0.3230920732
          0.0798573345
          0.4706461430
          0.0789283067
          0.4312184155
          0.0723115951
          0.3511165679
          0.0892809927
          0.5127763152
          0.0868255645
          0.4714664817
          0.0795123577
          0.3815202713
          0.0966184586
          0.5516634583
          0.0939140469
          0.5104647279
          0.0859919339
          0.4097867906
          0.1033523828
          0.5884059668
          0.1004309282
          0.5472641587
          0.0920535773
          0.4364308119
          0.1096838564
          0.6228939891
          0.1065797880
          0.5819159746
          0.0977472216
          0.4615672529
          0.1159146428
          0.6568533778
          0.1139357015
          0.6142351627
          0.1034740359
          0.4888575673
          0.1328714788
          0.7498387098
          0.1456887275
          0.6306306720
          0.0341210067
          -.0096250921
          0.0364612862
          -.0039100461
          0.0199915599
          -.0005687713
          0.0361056961
          -.0126131978
          0.0336330086
          -.0050875023
          0.0211581644
          -.0004180749
          0.0393058471
          -.0136861410
          0.0365896933
          -.0054675695
          0.0229144562
          -.0004596382
          0.0421395265
          -.0146877225
          0.0394536480
          -.0058492529
          0.0244963039
          -.0005134451
          0.0448025204
          -.0156455226
          0.0421175510
          -.0062165596
          0.0259944759
          -.0005427694
          0.0475831181
          -.0164196361
          0.0446397737
          -.0066286800
          0.0282739066
          0.0003978186
          0.0607662350
          -.0142897284
          0.0479717329
          -.0013493060
          -.0012701015
          -.0012552193
          -.0010861716
          -.0011488742
          -.0008618621
          -.0014844518
          -.0014837240
          -.0018514289
          -.0012390196
          -.0012463713
          -.0009139652
          -.0015907546
          -.0015888157
          -.0019938322
          -.0013230806
          -.0013330907
          -.0009711385
          -.0017005072
          -.0016897334
          -.0021341364
          -.0014039571
          -.0014175358
          -.0010219187
          -.0017857461
          -.0017734902
          -.0022686259
          -.0014607224
          -.0014224836
          -.0009765897
          -.0013579803
          -.0016407507
          -.0023310555
          -.0008712220
          -.0005787186
          -.0006591856
          -.0007034143
          -.0007809114
          -.0005959135
          -.0008994807
          -.0006802235
          -.0008078298
          -.0007922222
          -.0008120122
          -.0006257469
          -.0009513436
          -.0007137239
          -.0008536547
          -.0008322218
          -.0008555771
          -.0006531598
          -.0009930538
          -.0007406948
          -.0009023516
          -.0008532375
          -.0008703023
          -.0006359146
          -.0009682304
          -.0006747452
          -.0009254414
          -.0007841414
          -.0006240883
          -.0005567312
          -.0007405919
          -.0007497278
          -.0006182805
          -.0007964187
          -.0007278581
          -.0006866935
          -.0008272206
          -.0007695492
          -.0006413317
          -.0008257707
          -.0007516600
          -.0007161699
          -.0008446643
          -.0007792780
          -.0006247113
          -.0008061390
          -.0006941404
          -.0007317459
          -.0008244292
          -.0006619566
          -.0005884785
          -.0007821731
          -.0007876743
          -.0006468130
          -.0008235430
          -.0007588268
          -.0007203600
          -.0008489829
          -.0007786469
          -.0006262927
          -.0008019446
          -.0006972532
          -.0007286504
          -.0008582532
          -.0006916494
          -.0006233066
          -.0008033150
          -.0007993626
          -.0006342525
          -.0008044059
          -.0007041590
          -.0007373538
          -.0008752489
          -.0006337275
          -.0006734832
          0.0000000000
          0.0000000000
          0.0000000000
          0.0000000000
          0.0361813828
          0.0077424338
          0.0157067105
          0.0040082154
          0.0346741527
          0.0085350629
          0.0831104219
          0.0079691308
          0.0622058250
          0.0085169841
          0.0676565096
          0.0131329456
          0.1284558475
          0.0110154692
          0.1127646044
          0.0137826316
          0.1003102139
          0.0173845738
          0.1732541770
          0.0138628129
          0.1628165543
          0.0189330094
          0.1325344443
          0.0215640459
          0.2173782140
          0.0166490860
          0.2122212946
          0.0240072515
          0.1642440110
          0.0256660655
          0.2606894374
          0.0194031727
          0.2607899606
          0.0290221199
          0.1955367178
          0.0301352590
          0.3044074476
          0.0237071253
          0.3079741001
          0.0368159302
          0.2328898311
          0.0483597890
          0.3814445138
          0.0493064336
          0.3402230442
          0.0024818194
          -.0017686724
          0.0024512811
          -.0007297758
          0.0019835618
          -.0003229298
          0.0042773625
          -.0028880844
          0.0040905224
          -.0011158828
          0.0030913611
          -.0005353010
          0.0058664894
          -.0042658169
          0.0061969487
          -.0016150068
          0.0040653897
          -.0007851442
          0.0074238433
          -.0056567462
          0.0082167871
          -.0021190052
          0.0050166999
          -.0010307945
          0.0089586107
          -.0070228931
          0.0102020130
          -.0026166323
          0.0059765629
          -.0012377920
          0.0107619287
          -.0082245972
          0.0121972859
          -.0030728949
          0.0079368427
          -.0004353406
          0.0200002026
          -.0094700959
          0.0155887380
          -.0003652084
          -.0003494106
          -.0003564948
          -.0003396330
          -.0003387616
          -.0002927274
          -.0004906555
          -.0004078313
          -.0004979002
          -.0004090325
          -.0004253182
          -.0003423381
          -.0006440065
          -.0004793925
          -.0006832624
          -.0004775882
          -.0005282890
          -.0003910184
          -.0007954527
          -.0005508910
          -.0008747964
          -.0005451034
          -.0006284164
          -.0004360352
          -.0009290524
          -.0006143429
          -.0010601929
          -.0006029643
          -.0006929476
          -.0004545608
          -.0009022606
          -.0007633158
          -.0011256255
          -.0003733422
          -.0003308267
          -.0002698342
          -.0003903481
          -.0003780131
          -.0003306070
          -.0004129784
          -.0003866475
          -.0003448172
          -.0004481350
          -.0004165679
          -.0003590554
          -.0004612317
          -.0004208180
          -.0003890649
          -.0004890865
          -.0004611456
          -.0003869306
          -.0005030373
          -.0004502636