<VTKFile type="UnstructuredGrid" version="0.1" byte_order="LittleEndian">
  <UnstructuredGrid>
    <Piece NumberOfPoints="1152" NumberOfCells="384">
      <PointData Scalars="scalars">
        <DataArray type="Float32" Name="Tracer" Format="ascii">
          0.0361813828
          0.0077424338
          0.0157067105
          0.0040082154
          0.0346741527
          0.0085350629
          0.0831104219
          0.0079691308
          0.0622058250
          0.0085169841
          0.0676565096
          0.0131329456
          0.1284558475
          0.0110154692
          0.1127646044
          0.0137826316
          0.1003102139
          0.0173845738
          0.1732541770
          0.0138628129
          0.1628165543
          0.0189330094
          0.1325344443
          0.0215640459
          0.2173782140
          0.0166490860
          0.2122212946
          0.0240072515
          0.1642440110
          0.0256660655
          0.2606894374
          0.0194031727
          0.2607899606
          0.0290221199
          0.1955367178
          0.0301352590
          0.3044074476
          0.0237071253
          0.3079741001
          0.0368159302
          0.2328898311
          0.0483597890
          0.3814445138
          0.0493064336
          0.3402230442
          0.0024818194
          -.0017686724
          0.0024512811
          -.0007297758
          0.0019835618
          -.0003229298
          0.0042773625
          -.0028880844
          0.0040905224
          -.0011158828
          0.0030913611
          -.0005353010
          0.0058664894
          -.0042658169
          0.0061969487
          -.0016150068
          0.0040653897
          -.0007851442
          0.0074238433
          -.0056567462
          0.0082167871
          -.0021190052
          0.0050166999
          -.0010307945
          0.0089586107
          -.0070228931
          0.0102020130
          -.0026166323
          0.0059765629
          -.0012377920
          0.0107619287
          -.0082245972
          0.0121972859
          -.0030728949
          0.0079368427
          -.0004353406
          0.0200002026
          -.0094700959
          0.0155887380
          -.0003652084
          -.0003494106
          -.0003564948
          -.0003396330
          -.0003387616
          -.0002927274
          -.0004906555
          -.0004078313
          -.0004979002
          -.0004090325
          -.0004253182
          -.0003423381
          -.0006440065
          -.0004793925
          -.0006832624
          -.0004775882
          -.0005282890
          -.0003910184
          -.0007954527
          -.0005508910
          -.0008747964
          -.0005451034
          -.0006284164
          -.0004360352
          -.0009290524
          -.0006143429
          -.0010601929
          -.0006029643
          -.0006929476
          -.0004545608
          -.0009022606
          -.0007633158
          -.0011256255
          -.0003733422
          -.0003308267
          -.0002698342
          -.0003903481
          -.0003780131
          -.0003306070
          -.0004129784
          -.0003866475
          -.0003448172
          -.0004481350
          -.0004165679
          -.0003590554
          -.0004612317
          -.0004208180
          -.0003890649
          -.0004890865
          -.0004611456
          -.0003869306
          -.0005030373
          -.0004502636
          -.0004355552
          -.0005178332
          -.0004912200
          -.0003789054
          -.0005081152
          -.0004298998
          -.0004784385
          -.0004538540
          -.0004080121
          -.0003287306
          -.0004757299
          -.0004606281
          -.0003931151
          -.0004807185
          -.0004648280
          -.0004070331
          -.0005317261
          -.0004895195
          -.0004152160
          -.0005131928
          -.0004904526
          -.0004394271
          -.0005558967
          -.0005114994
          -.0004002755
          -.0004943872
          -.0004616591
          -.0004733541
          -.0005376819
          -.0004779204
          -.0003983395
          -.0005537155
          -.0005417988
          -.0004478810
          -.0005510929
          -.0005272312
          -.0004809017
          -.0005942102
          -.0005481985
          -.0004241159
          -.0005252509
          -.0004898563
          -.0005072186
          -.0006068639
          -.0005354075
          -.0004635587
          -.0006081925
          -.0005974376
          -.0004506684
          -.0005556021
          -.0005181482
          -.0005459302
          -.0005916451
          -.0004974552
          -.0005376157
          0.3320252001
          0.0513782725
          0.3784307241
          0.0415322594
          0.2276326120
          0.0355079398
          0.2962035835
          0.0249130838
          0.3103120327
          0.0315373391
          0.1977900565
          0.0333797708
          0.2510210276
          0.0228978470
          0.2675916553
          0.0278817080
          0.1665938348
          0.0275783427
          0.2038510740
          0.0190042928
          0.2230411172
          0.0232637245
          0.1340637356
          0.0214984100
          0.1559018791
          0.0148586687
          0.1774177551
          0.0184876323
          0.1009930223
          0.0153332390
          0.1073475555
          0.0106533300
          0.1310959458
          0.0136384545
          0.0675447658
          0.0091396077
          0.0585595779
          0.0065645622
          0.0842447728
          0.0088384040
          0.0345552117
          0.0041841832
          0.0156537332
          0.0070982534
          0.0366793126
          0.0138318557
          -.0088345567
          0.0189275406
          -.0040769009
          0.0068739085
          -.0015993922
          0.0122453813
          -.0079044783
          0.0124636814
          -.0035022802
          0.0060247350
          -.0011930723
          0.0103141302
          -.0065746196
          0.0108265011
          -.0028986130
          0.0049796482
          -.0010230164
          0.0081528220
          -.0053169932
          0.0088632982
          -.0023447725
          0.0038310974
          -.0008534983
          0.0059545650
          -.0040497044
          0.0068255696
          -.0017868675
          0.0026664422
          -.0006770050
          0.0037678636
          -.0027505620
          0.0047632577
          -.0012316895
          0.0015999621
          -.0003917493
          0.0028808890
          -.0011192217
          0.0028814021
          -.0012736020
          -.0007184990
          -.0013939076
          -.0007242530
          -.0008676645
          -.0004816462
          -.0010579409
          -.0006382371
          -.0012803182
          -.0006577222
          -.0007327448
          -.0004276380
          -.0009035738
          -.0005569288
          -.0010772699
          -.0005807870
          -.0006287274
          -.0003746533
          -.0007533135
          -.0004770805
          -.0008935706
          -.0005043165
          -.0005253782
          -.0003193997
          -.0005965299
          -.0003926689
          -.0007084446
          -.0004186228
          -.0004096933
          -.0002429154
          -.0003979310
          -.0002900010
          -.0005137277
          -.0005840409
          -.0004605430
          -.0004718319
          -.0005524972
          -.0005135275
          -.0004034062
          -.0005089673
          -.0004621905
          -.0004747629
          -.0005352438
          -.0004528918
          -.0003671226
          -.0004556385
          -.0004215833
          -.0004226130
          -.0004885237
          -.0004052348
          -.0003317959
          -.0003974339
          -.0003787966
          -.0003747280
          -.0004321125
          -.0003462954
          -.0002708049
          -.0003197848
          -.0003044855
          -.0003249404
          -.0005766254
          -.0004993310
          -.0004337341
          -.0005892902
          -.0005279193
          -.0004312810
          -.0005100875
          -.0005049986
          -.0004594660
          -.0005755983
          -.0004717549
          -.0003942694
          -.0004612161
          -.0004599193
          -.0004175060
          -.0005189044
          -.0004162177
          -.0003294873
          -.0003859780
          -.0003771660
          -.0003785969
          -.0006158239
          -.0005297732
          -.0004612935
          -.0006246240
          -.0005641429
          -.0004571003
          -.0005440334
          -.0005338258
          -.0004927641
          -.0006005766
          -.0004930388
          -.0003846632
          -.0004650915
          -.0004419248
          -.0004505107
          -.0006464605
          -.0005528796
          -.0004893188
          -.0006400860
          -.0005796772
          -.0004373019
          -.0005371656
          -.0005015553
          -.0005221430
          -.0006177847
          -.0004939305
          -.0005314376
          -.0007635227
          -.0006734159
          -.0004825732
          -.0008087585
          -.0006693713
          -.0005184806
          -.0007197157
          -.0006741774
          -.0005246955
          -.0008108924
          -.0006526613
          -.0005109988
          -.0007190316
          -.0006707821
          -.0005198867
          -.0008095949
          -.0006522169
          -.0005108342
          -.0007194634
          -.0006706883
          -.0005197839
          -.0008095036
          -.0006532923
          -.0005111999
          -.0007297838
          -.0006652432
          -.0005248953
          -.0007875350
          -.0006448837
          -.0004284117
          -.0002107346
          -.0000284241
          -.0006821703
          0.0014151828
          0.0024104072
          0.0072593763
          0.0377955027
          0.0303329509
          0.0012893290
          0.0618670210
          0.0881597325
          0.2439959347
          0.6171429157
          0.5084587336
          0.0883669108
          -.0008237315
          -.0006818082
          -.0005816453
          -.0008410005
          -.0007233363
          -.0005408383
          -.0007812094
          -.0006846262
          -.0006052657
          -.0008439568
          -.0007066733
          -.0005340410
          -.0007811945
          -.0006814670
          -.0006009213
          -.0008426952
          -.0007062780
          -.0005335132
          -.0007767872
          -.0006772558
          -.0006011535
          -.0008196884
          -.0006750194
          -.0004377321
          -.0001035505
          -.0000552093
          -.0006259931
          0.0014420580
          0.0022402608
          0.0072440421
          0.0336844437
          0.0312527828
          0.0017106300
          0.0627099946
          0.0766062587
          0.2455030084
          0.5638482571
          0.5493576527
          0.0307545885
          -.0008609452
          -.0007080786
          -.0006091895
          -.0008721171
          -.0007563099
          -.0005593265
          -.0008169801
          -.0007101644
          -.0006333808
          -.0008748063
          -.0007389123
          -.0005519704
          -.0008123635
          -.0007026868
          -.0006291807
          -.0008504269
          -.0007063510
          -.0004540817
          -.0001187428
          -.0000655573
          -.0006538425
          0.0014479837
          0.0023089894
          0.0074323164
          0.0348177068
          0.0322592184
          0.0017408184
          0.0643211007
          0.0795542374
          0.2538593411
          0.5886861682
          0.5704583526
          0.0308466032
          -.0008863644
          -.0007235879
          -.0006293051
          -.0008898606
          -.0007779925
          -.0005689320
          -.0008367560
          -.0007206537
          -.0006538926
          -.0008693192
          -.0007276374
          -.0004637115
          -.0001344162
          -.0000746555
          -.0006742950
          0.0014303800
          0.0023442928
          0.0075071603
          0.0354759879
          0.0327751674
          0.0017639534
          0.0649018809
          0.0814630091
          0.2583361268
          0.6060581803
          0.5823037624
          0.0316326879
          -.0008933009
          -.0007249416
          -.0006403328
          -.0008739969
          -.0007550273
          -.0004742282
          -.0001479064
          -.0000859405
          -.0006888947
          0.0013902386
          0.0023424835
          0.0074655162
          0.0355810672
          0.0327797756
          0.0017595189
          0.0644703209
          0.0821015686
          0.2587821484
          0.6139830947
          0.5850583315
          0.0319279060
          -.0001980088
          -.0001204573
          -.0006977693
          0.0014234156
          0.0022981339
          0.0074116667
          0.0351382382
          0.0323018357
          0.0017341371
          0.0631371140
          0.0814443231
          0.2552322447
          0.6123241782
          0.5786900520
          0.0317264050
          0.0344003886
          0.0341345742
          0.0013074586
          0.0700562000
          0.0801288933
          0.2542986870
          0.6008427143
          0.5646025538
          0.0318631567
          0.5755273104
          0.6230971217
          0.0875259936
          0.0862476081
          0.5032565594
          0.6297829151
          0.2492117882
          0.0737950578
          0.0372209027
          -.0084540825
          0.0136892954
          0.0290508643
          0.0046874103
          -.0017411254
          -.0007469926
          -.0009496661
          -.0008474762
          -.0009514464
          -.0008496130
          -.0007322201
          -.0005264459
          -.0006862305
          -.0006812394
          -.0005568974
          -.0007857766
          -.0006592679
          -.0005139317
          -.0006834334
          -.0006749057
          -.0005261747
          -.0007831747
          -.0006581888
          -.0005141362
          -.0006833966
          -.0006748931
          -.0005255977
          -.0007830389
          -.0006579413
          -.0005135781
          -.0006801630
          -.0006725764
          -.0005251700
          -.0007762140
          -.0006469154
          -.0004894710
          -.0006064850
          -.0006182595
          -.0005135367
          0.0254223906
          0.5415551066
          0.5724544525
          0.2570424676
          0.0631595477
          0.0422233492
          -.0096893311
          0.0146539053
          0.0215789061
          0.0048338175
          -.0019483312
          -.0005565404
          -.0008790790
          -.0008394827
          -.0008890803
          -.0008697374
          -.0007632880
          -.0005553347
          -.0007521004
          -.0006873683
          -.0006228979
          -.0008201642
          -.0007204186
          -.0005378195
          -.0007536067
          -.0006800008
          -.0006117134
          -.0008177218
          -.0007200367
          -.0005370938
          -.0007512828
          -.0006776953
          -.0006117104
          -.0008108229
          -.0007109967
          -.0005143738
          -.0006972452
          -.0006216087
          -.0006087885
          0.0266995355
          0.5624306798
          0.5988557339
          0.2658928335
          0.0657762289
          0.0430330150
          -.0100051034
          0.0150381215
          0.0223680325
          0.0049200035
          -.0020230608
          -.0005937231
          -.0009156859
          -.0008748043
          -.0009277044
          -.0009028997
          -.0007976667
          -.0005739044
          -.0007867712
          -.0007126567
          -.0006524694
          -.0008502524
          -.0007533359
          -.0005554790
          -.0007859229
          -.0007027904
          -.0006410830
          -.0008408860
          -.0007438193
          -.0005320012
          -.0007305387
          -.0006448794
          -.0006381132
          0.0272966623
          0.5740904212
          0.6164399981
          0.2704670131
          0.0672678128
          0.0431507342
          -.0101991305
          0.0151607553
          0.0227721166
          0.0049205571
          -.0020758712
          -.0006208447
          -.0009393225
          -.0008968182
          -.0009577328
          -.0009220915
          -.0008198826
          -.0005830236
          -.0008076653
          -.0007248991
          -.0006734408
          -.0008603584
          -.0007655632
          -.0005416326
          -.0007532284
          -.0006587547
          -.0006587768
          0.0274551176
          0.5767951608
          0.6243854761
          0.2708202004
          0.0677071586
          0.0425957516
          -.0102343448
          0.0150471386
          0.0228190348
          0.0048458502
          -.0020964218
          -.0006359856
          -.0009457220
          -.0009018911
          -.0009728916
          -.0009153076
          -.0008206109
          -.0005557677
          -.0007624788
          -.0006686659
          -.0006805871
          0.0271881074
          0.5705034733
          0.6225869060
          0.2669894695
          0.0670883730
          0.0414500907
          -.0100847669
          0.0147529915
          0.0225138906
          0.0050478876
          -.0021141428
          -.0002381721
          -.0008506319
          -.0007040461
          -.0009491451
          0.0272671655
          0.5562700033
          0.6109613180
          0.2653958499
          0.0659934282
          0.0500349402
          -.0065412754
          0.0206252746
          0.0230149496
          0.0856370926
          0.6230073571
          0.5783607960
          0.5933478475
          0.0835675374
          0.7433742285
          0.0822035670
          0.4310376048
          0.0503007621
          0.5663896799
          0.0337978713
          0.6489959955
          0.0652115643
          0.4040597379
          0.0502754115
          0.5375250578
          0.0324040614
          0.6160140038
          0.0621624179
          0.3825351596
          0.0473199673
          0.5053830147
          0.0303507373
          0.5818970203
          0.0585607439
          0.3590183258
          0.0440334119
          0.4712664485
          0.0280430093
          0.5453439951
          0.0546873324
          0.3340827227
          0.0405811965
          0.4353432059
          0.0256519374
          0.5066496134
          0.0506240986
          0.3080373704
          0.0373705402
          0.3990966976
          0.0246233791
          0.4656965733
          0.0484466329
          0.2866244316
          0.0450731404
          0.3954404593
          0.0457527414
          0.4146570265
          0.0204322953
          -.0179431960
          0.0356049798
          -.0065364279
          0.0121701192
          -.0035701683
          0.0188770182
          -.0176941380
          0.0252045784
          -.0064823558
          0.0112927165
          -.0031945864
          0.0178710818
          -.0166838951
          0.0238886327
          -.0061096083
          0.0106258402
          -.0030288650
          0.0166789386
          -.0156720802
          0.0224416927
          -.0057442891
          0.0098704956
          -.0028538369
          0.0154231526
          -.0146021117
          0.0208821613
          -.0053602695
          0.0090985838
          -.0026375977
          0.0143652372
          -.0133590009
          0.0192813482
          -.0049243965
          0.0091452654
          -.0015851059
          0.0192396436
          -.0118796695
          0.0188235026
          -.0021684901
          -.0010268897
          -.0024625119
          -.0009879093
          -.0014501122
          -.0007064011
          -.0019975044
          -.0009847925
          -.0025243259
          -.0009572758
          -.0013509858
          -.0006626841
          -.0018884020
          -.0009250322
          -.0023781634
          -.0009043260
          -.0012761790
          -.0006247550
          -.0017765487
          -.0008681761
          -.0022395691
          -.0008510028
          -.0011976620
          -.0005826170
          -.0016441206
          -.0008020729
          -.0020913193
          -.0007853795
          -.0010795797
          -.0005007406
          -.0013565242
          -.0007822525
          -.0018513205
          -.0007715981
          -.0006050259
          -.0006672621
          -.0006820737
          -.0007196271
          -.0005041755
          -.0007040937
          -.0005766572
          -.0006960968
          -.0006650194
          -.0006631888
          -.0004746660
          -.0006652682
          -.0005433512
          -.0006524430
          -.0006285654
          -.0006253795
          -.0004460362
          -.0006197683
          -.0005075359
          -.0006153019
          -.0005806858
          -.0005723552
          -.0003801917
          -.0005334429
          -.0004242991
          -.0005757767
          -.0006920594
          -.0006238749
          -.0005636273
          -.0006817756
          -.0006767328
          -.0005016851
          -.0006298247
          -.0005936614
          -.0005977621
          -.0006640033
          -.0006221032
          -.0004702917
          -.0005896922
          -.0005538523
          -.0005598686
          -.0006151775
          -.0005714532
          -.0004021718
          -.0005007479
          -.0004647258
          -.0005290699
          -.0006909858
          -.0006245599
          -.0005628025
          -.0006814035
          -.0006752252
          -.0004992983
          -.0006227634
          -.0005883154
          -.0005970252
          -.0006503825
          -.0006044382
          -.0004259248
          -.0005313954
          -.0004931071
          -.0005594747
          -.0006839243
          -.0006170656
          -.0005629656
          -.0006637453
          -.0006576734
          -.0004487549
          -.0005611942
          -.0005206873
          -.0005970834
          -.0005879463
          -.0005025503
          -.0005515105
          0.4086157084
          0.0557543449
          0.3956770003
          0.0448050350
          0.2901753485
          0.0537386425
          0.4527106881
          0.0371715128
          0.4121626616
          0.0425864905
          0.3166661859
          0.0612600036
          0.4930291474
          0.0416144505
          0.4510756433
          0.0471737310
          0.3440537751
          0.0662489533
          0.5304619074
          0.0450736992
          0.4883329570
          0.0511123091
          0.3695656657
          0.0708302185
          0.5658318400
          0.0482133850
          0.5235254765
          0.0547973774
          0.3936187625
          0.0751345158
          0.5990077853
          0.0511705279
          0.5566679835
          0.0582559817
          0.4162198901
          0.0792852864
          0.6310412884
          0.0548355207
          0.5875876546
          0.0612527095
          0.4397897422
          0.0915571451
          0.7247714996
          0.0770899132
          0.6004921198
          0.0200321600
          -.0101125687
          0.0217239168
          -.0046446812
          0.0109421853
          -.0016803511
          0.0213396586
          -.0121917166
          0.0189806074
          -.0054922686
          0.0116333496
          -.0016879563
          0.0232444312
          -.0132120177
          0.0207367949
          -.0059177461
          0.0126012769
          -.0018236078
          0.0249117501
          -.0141821699
          0.0223727114
          -.0063399398
          0.0134637048
          -.0019587427
          0.0264765322
          -.0151054943
          0.0238926113
          -.0067412714
          0.0142732654
          -.0020822948
          0.0280372649
          -.0159336291
          0.0253232904
          -.0071556969
          0.0154261552
          -.0017608723
          0.0362052023
          -.0153147057
          0.0269647762
          -.0014536312
          -.0007773826
          -.0014433590
          -.0007811603
          -.0010396702
          -.0006131199
          -.0015697901
          -.0009034161
          -.0018454544
          -.0008812710
          -.0011181014
          -.0006498970
          -.0016858575
          -.0009641476
          -.0019874426
          -.0009398381
          -.0011968696
          -.0006898339
          -.0018007015
          -.0010233783
          -.0021282472
          -.0009964023
          -.0012730293
          -.0007261485
          -.0019030240
          -.0010742134
          -.0022629481
          -.0010361420
          -.0013094161
          -.0007077168
          -.0017948824
          -.0009792121
          -.0023717976
          -.0006718980
          -.0004654122
          -.0004873123
          -.0005738440
          -.0006008194
          -.0004612682
          -.0006904490
          -.0005373588
          -.0005895015
          -.0006384306
          -.0006228872
          -.0004829832
          -.0007304597
          -.0005638347
          -.0006219397
          -.0006712316
          -.0006567035
          -.0005051022
          -.0007637761
          -.0005871539
          -.0006576006
          -.0006912600
          -.0006703532
          -.0004945667
          -.0007554122
          -.0005338039
          -.0006788490
          -.0006371761
          -.0005060803
          -.0004399800
          -.0006091409
          -.0005969892
          -.0004832731
          -.0006455089
          -.0005795987
          -.0005330580
          -.0006722087
          -.0006119927
          -.0005007923
          -.0006720973
          -.0006002147
          -.0005561681
          -.0006898482
          -.0006224482
          -.0004902414
          -.0006636655
          -.0005518098
          -.0005726066
          -.0006720679
          -.0005363394
          -.0004669726
          -.0006434600
          -.0006287245
          -.0005063220
          -.0006715016
          -.0006053845
          -.0005615657
          -.0006928518
          -.0006225848
          -.0004911892
          -.0006621341
          -.0005533258
          -.0005718443
          -.0007014493
          -.0005616227
          -.0004947538
          -.0006635285
          -.0006403101
          -.0004983140
          -.0006632220
          -.0005586747
          -.0005787858
          -.0007211074
          -.0005163422
          -.0005390373
          0.0000000000
          0.0000000000
          0.0000000000
          0.0000000000
          0.0335032828
          0.0033506991
          0.0144788995
          0.0012437287
          0.0292738080
          0.0041879220
          0.0774426535
          -.0006104900
          0.0584379062
          0.0029325495
          0.0575612970
          0.0059600919
          0.1198691204
          -.0027854631
          0.1058969721
          0.0050071171
          0.0854321420
          0.0074794758
          0.1618060619
          -.0050762030
          0.1528551280
          0.0070200143
          0.1129460633
          0.0089694634
          0.2031121701
          -.0073505002
          0.1992098838
          0.0090044662
          0.1400195360
          0.0104259495
          0.2436350882
          -.0095875198
          0.2447841465
          0.0109637845
          0.1666542590
          0.0120710358
          0.2839983106
          -.0109170200
          0.2891348600
          0.0146601237
          0.1979279816
          0.0247148145
          0.3580030799
          0.0029286388
          0.3170210123
          0.0009813431
          -.0014861086
          0.0008185359
          -.0006280248
          0.0008718298
          -.0003393210
          0.0016191592
          -.0022527534
          0.0014337262
          -.0009539588
          0.0013235300
          -.0005355563
          0.0021113125
          -.0032964828
          0.0021731777
          -.0013749611
          0.0016798883
          -.0007449175
          0.0025914547
          -.0043433141
          0.0028642593
          -.0017961243
          0.0020263658
          -.0009509943
          0.0030629127
          -.0053727166
          0.0035428847
          -.0022110781
          0.0023732879
          -.0011417950
          0.0036568269
          -.0063214442
          0.0042254580
          -.0026153510
          0.0032320924
          -.0008102690
          0.0088388510
          -.0078282990
          0.0058234921
          -.0002925847
          -.0002320359
          -.0002720441
          -.0002501197
          -.0002510463
          -.0002034253
          -.0003901034
          -.0002654277
          -.0003807282
          -.0002974369
          -.0003125090
          -.0002334691
          -.0005036915
          -.0003032881
          -.0005196758
          -.0003429722
          -.0003831818
          -.0002637235
          -.0006156664
          -.0003413190
          -.0006614032
          -.0003877684
          -.0004522851
          -.0002921487
          -.0007190289
          -.0003747555
          -.0008000692
          -.0004257846
          -.0005039162
          -.0003013268
          -.0007628200
          -.0004395026
          -.0008758305
          -.0002835440
          -.0002531822
          -.0001901329
          -.0003033089
          -.0002794978
          -.0002393423
          -.0003120448
          -.0002909234
          -.0002394508
          -.0003446667
          -.0003072233
          -.0002591605
          -.0003475491
          -.0003171018
          -.0002691280
          -.0003767243
          -.0003399909
          -.0002797096
          -.0003790704
          -.0003408180