<VTKFile type="UnstructuredGrid" version="0.1" byte_order="LittleEndian">
  <UnstructuredGrid>
    <Piece NumberOfPoints="1152" NumberOfCells="384">
      <PointData Scalars="scalars">
        <DataArray type="Float32" Name="Tracer" Format="ascii">
          0.0433191992
          0.0214785375
          0.0179079045
          0.0163359866
          0.0493662879
          0.0250914693
          0.0962601230
          0.0341645628
          0.0700441226
          0.0309745558
          0.0935572311
          0.0399169512
          0.1479813308
          0.0523269661
          0.1267476678
          0.0480589941
          0.1381520927
          0.0547946244
          0.1989698708
          0.0704128221
          0.1832149029
          0.0649723634
          0.1821544468
          0.0694226623
          0.2492009103
          0.0882133991
          0.2389408648
          0.0816437602
          0.2255117148
          0.0839265212
          0.2988193035
          0.1061029807
          0.2937018573
          0.0985867679
          0.2690690458
          0.1002606750
          0.3507375717
          0.1286516786
          0.3471524417
          0.1234291494
          0.3207712173
          0.1340317577
          0.4237559140
          0.1728488058
          0.3943538070
          0.0122158742
          0.0018443664
          0.0127894310
          0.0017740176
          0.0116712935
          0.0030666522
          0.0201446135
          0.0007023728
          0.0196616724
          0.0022543459
          0.0177053101
          0.0043232059
          0.0283071380
          0.0006555545
          0.0293908846
          0.0031325493
          0.0239071231
          0.0053702993
          0.0362984464
          0.0005337035
          0.0390431844
          0.0039559193
          0.0299983267
          0.0064195343
          0.0443216935
          0.0005062507
          0.0485489480
          0.0048263995
          0.0364461206
          0.0080054654
          0.0544245541
          0.0018635765
          0.0584486164
          0.0069715152
          0.0478907116
          0.0151558779
          0.0835823938
          0.0107537117
          0.0735514164
          0.0006774170
          -.0009482513
          0.0009386395
          -.0007160126
          0.0002680759
          -.0006081760
          0.0010387236
          -.0013014036
          0.0010412022
          -.0009102717
          0.0004486587
          -.0007236510
          0.0013426051
          -.0016465813
          0.0014252390
          -.0010935663
          0.0005843577
          -.0008500047
          0.0016491682
          -.0019893514
          0.0017732452
          -.0012738011
          0.0007623741
          -.0009241728
          0.0022375705
          -.0022253452
          0.0022096513
          -.0013838799
          0.0015352252
          -.0005258545
          0.0055792741
          -.0023011712
          0.0036110221
          -.0007953639
          -.0007696872
          -.0006493278
          -.0008385300
          -.0008681338
          -.0008048668
          -.0009040023
          -.0009340114
          -.0008620790
          -.0009983728
          -.0009740576
          -.0008930559
          -.0010194918
          -.0010296821
          -.0009916587
          -.0010915404
          -.0010804877
          -.0009562557
          -.0011020351
          -.0010979571
          -.0011127356
          -.0011436988
          -.0011284762
          -.0009366637
          -.0010273576
          -.0011241697
          -.0011583896
          -.0009715781
          -.0008755613
          -.0007811328
          -.0009885917
          -.0010455688
          -.0009376278
          -.0010483600
          -.0010449529
          -.0010105128
          -.0011426319
          -.0011194238
          -.0009928286
          -.0010995972
          -.0010894702
          -.0010909252
          -.0011713648
          -.0011476666
          -.0009453095
          -.0010658173
          -.0010246425
          -.0011431233
          -.0011368161
          -.0010218209
          -.0009272113
          -.0011430179
          -.0012129452
          -.0010569433
          -.0011687725
          -.0011667552
          -.0011663634
          -.0012483668
          -.0012192032
          -.0009985835
          -.0011032544
          -.0010836706
          -.0012017493
          -.0012612951
          -.0011253883
          -.0010701811
          -.0012225251
          -.0013080473
          -.0010411836
          -.0011647259
          -.0011341774
          -.0012813556
          -.0012076971
          -.0010096479
          -.0011786448
          0.3783565462
          0.1673534364
          0.4134159982
          0.1358786374
          0.3123846352
          0.1129266471
          0.3302798569
          0.1295699626
          0.3567681611
          0.1118282899
          0.2672916353
          0.0970079154
          0.2802721858
          0.1107090116
          0.3062962890
          0.0956393331
          0.2250329852
          0.0806535706
          0.2272597849
          0.0914085507
          0.2555153370
          0.0786969587
          0.1808436662
          0.0634521842
          0.1733468473
          0.0712608248
          0.2033415735
          0.0611992739
          0.1358741522
          0.0459830351
          0.1188238859
          0.0508646891
          0.1503409594
          0.0435203202
          0.0905607715
          0.0286678448
          0.0646703392
          0.0312501080
          0.0967596322
          0.0268449709
          0.0470427088
          0.0149048697
          0.0185416639
          0.0210193880
          0.0437852480
          0.0668486431
          0.0097176060
          0.0812887922
          0.0092672305
          0.0455781743
          0.0077609131
          0.0553355403
          0.0024086228
          0.0607797354
          0.0054706251
          0.0373138487
          0.0068800580
          0.0465762876
          0.0019762958
          0.0511850081
          0.0046689794
          0.0309095308
          0.0054675322
          0.0369866081
          0.0015440800
          0.0417601839
          0.0037275313
          0.0240617506
          0.0039325492
          0.0272271410
          0.0010257687
          0.0319794565
          0.0027297998
          0.0171532854
          0.0024604532
          0.0177708063
          0.0007238677
          0.0221436080
          0.0018392020
          0.0110903289
          0.0019148287
          0.0131306071
          0.0026110874
          0.0135772647
          0.0026099002
          -.0025099595
          0.0041480064
          -.0017305443
          0.0008072832
          -.0012114724
          0.0019786945
          -.0024923338
          0.0019703922
          -.0016921323
          0.0005566611
          -.0010258247
          0.0015631167
          -.0021237035
          0.0015927870
          -.0014687661
          0.0003671080
          -.0009131878
          0.0010684046
          -.0017672654
          0.0011699580
          -.0012569865
          0.0001468401
          -.0007903730
          0.0006184972
          -.0013843763
          0.0007310652
          -.0010208956
          0.0000382725
          -.0005469560
          0.0008364569
          -.0008398382
          0.0004371991
          -.0013719042
          -.0011395209
          -.0011935052
          -.0012239483
          -.0012742410
          -.0010154720
          -.0012063239
          -.0011656318
          -.0012745230
          -.0012243859
          -.0011299780
          -.0009345796
          -.0010673724
          -.0010534206
          -.0011312648
          -.0011067721
          -.0009993700
          -.0008293776
          -.0009159903
          -.0009198307
          -.0009904807
          -.0009563160
          -.0008364487
          -.0006660051
          -.0007115937
          -.0007337363
          -.0008321651
          -.0012434172
          -.0010604166
          -.0010127710
          -.0012043015
          -.0012074767
          -.0010285997
          -.0011227949
          -.0011431022
          -.0011326011
          -.0012359341
          -.0010922760
          -.0009481238
          -.0009928476
          -.0010335180
          -.0010287850
          -.0010969592
          -.0009450809
          -.0007825719
          -.0008316825
          -.0008455343
          -.0009082821
          -.0012950042
          -.0011241626
          -.0010383622
          -.0012700513
          -.0012668649
          -.0010776116
          -.0011567901
          -.0011937649
          -.0011794041
          -.0012647785
          -.0011093060
          -.0009121223
          -.0009835784
          -.0009920098
          -.0010624740
          -.0013378836
          -.0011580501
          -.0010968786
          -.0012728751
          -.0012761070
          -.0010109521
          -.0011338475
          -.0011098419
          -.0012173667
          -.0012598287
          -.0010048850
          -.0011463492
          -.0015065223
          -.0014260984
          -.0010979152
          -.0016291314
          -.0014740640
          -.0012732429
          -.0014355356
          -.0015063055
          -.0012898978
          -.0016714865
          -.0014457438
          -.0012558998
          -.0014293630
          -.0014950163
          -.0012784380
          -.0016644134
          -.0014427371
          -.0012529242
          -.0014318110
          -.0014859580
          -.0012812279
          -.0016334142
          -.0014220471
          -.0011635120
          -.0010794585
          -.0010953564
          -.0013338823
          -.0005005854
          0.0000270021
          0.0020137981
          0.0103443749
          0.0083262082
          0.0001476123
          0.0221177638
          0.0293619502
          0.0530374385
          0.1444920152
          0.1181131080
          0.0452921540
          0.2144725621
          0.2515678406
          0.4287622571
          0.7299997807
          0.6514198184
          0.3182797730
          -.0016947733
          -.0014630572
          -.0013668917
          -.0017036860
          -.0016200355
          -.0013337217
          -.0016048782
          -.0015405680
          -.0014959875
          -.0017431319
          -.0015844977
          -.0013170461
          -.0015902763
          -.0015205744
          -.0014831810
          -.0017035409
          -.0015397483
          -.0012094689
          -.0011560287
          -.0011109962
          -.0014617775
          -.0005223759
          -.0001221847
          0.0019395929
          0.0087860320
          0.0082422616
          -.0000451893
          0.0221397206
          0.0257558711
          0.0506625697
          0.1224496067
          0.1157705933
          0.0348660238
          0.2102226168
          0.2279615253
          0.4231594503
          0.6866762638
          0.6734699011
          0.2487162948
          -.0017703496
          -.0015199224
          -.0014316740
          -.0017663806
          -.0016900490
          -.0013791570
          -.0016663197
          -.0015880569
          -.0015629727
          -.0017726428
          -.0016105021
          -.0012564480
          -.0012156152
          -.0011616283
          -.0015270492
          -.0005711983
          -.0001530790
          0.0019552859
          0.0089708474
          0.0084154475
          -.0000761802
          0.0225574765
          0.0264364984
          0.0519071035
          0.1255944073
          0.1193867847
          0.0354385786
          0.2161852121
          0.2351838350
          0.4369018674
          0.7122890949
          0.6996390820
          0.2527080178
          -.0018118994
          -.0015474476
          -.0014783462
          -.0017731142
          -.0016935200
          -.0013009220
          -.0012665086
          -.0012067084
          -.0015876531
          -.0006184439
          -.0001861915
          0.0019405517
          0.0090521937
          0.0084709078
          -.0001080050
          0.0226155203
          0.0268543791
          0.0524523556
          0.1279849410
          0.1212993041
          0.0360413119
          0.2188799977
          0.2404029816
          0.4446332455
          0.7332182527
          0.7141883969
          0.2589526176
          -.0013916702
          -.0011656251
          -.0014973315
          -.0005974213
          -.0002481081
          0.0019201298
          0.0089960471
          0.0084019816
          -.0001476152
          0.0223831292
          0.0268487222
          0.0522277653
          0.1284009516
          0.1213307083
          0.0360938795
          0.2181759775
          0.2418993115
          0.4454422891
          0.7428584099
          0.7175486088
          0.2612639070
          0.0089214798
          0.0089090616
          -.0001307242
          0.0239620581
          0.0267534070
          0.0533208400
          0.1269224733
          0.1201929003
          0.0359285027
          0.2151748538
          0.2396589965
          0.4398242533
          0.7408682704
          0.7098338604
          0.2595800161
          0.1290991455
          0.1354874969
          0.0423519090
          0.2342936844
          0.2421999723
          0.4473461211
          0.7265769839
          0.6969885230
          0.2593518794
          0.7263563275
          0.7616359591
          0.3420138359
          0.3100017607
          0.6415312290
          0.7580133080
          0.4374412596
          0.2381844223
          0.1648757458
          0.0168797411
          0.0891484171
          0.1363648176
          0.0449998751
          0.0145568512
          0.0070706299
          -.0026082820
          0.0021445595
          0.0055826325
          -.0001995879
          -.0015625800
          -.0013032495
          -.0015105138
          -.0015393054
          -.0014621734
          -.0016389340
          -.0015001880
          -.0012769651
          -.0013863570
          -.0014990235
          -.0013497464
          -.0016134137
          -.0014603785
          -.0012719377
          -.0013813209
          -.0014938307
          -.0013287105
          -.0016091147
          -.0014548902
          -.0012652655
          -.0013589098
          -.0014778740
          -.0013195864
          -.0015767973
          -.0014057867
          -.0011894020
          -.0011853740
          -.0013518601
          -.0012500965
          0.2301497459
          0.6574893594
          0.7035547495
          0.4352662563
          0.2117483020
          0.1660595536
          0.0008082027
          0.0848981366
          0.1051663533
          0.0423639715
          0.0097513758
          0.0082572252
          -.0028859824
          0.0021605976
          0.0031573209
          -.0002414434
          -.0016685526
          -.0012696811
          -.0015919966
          -.0015206530
          -.0015336557
          -.0016924598
          -.0016168586
          -.0013401513
          -.0015413963
          -.0015121397
          -.0015193636
          -.0016817662
          -.0015984216
          -.0013271720
          -.0015278928
          -.0014954030
          -.0015113988
          -.0016510471
          -.0015632877
          -.0012630871
          -.0014226661
          -.0013833314
          -.0014795840
          0.2359048277
          0.6837040782
          0.7310928106
          0.4499936402
          0.2189904749
          0.1706088334
          0.0005977247
          0.0876222253
          0.1079639718
          0.0433999971
          0.0099947918
          0.0083217192
          -.0029733914
          0.0021619038
          0.0032057227
          -.0002896191
          -.0017394666
          -.0013233842
          -.0016601927
          -.0015792703
          -.0016006394
          -.0017527739
          -.0016846133
          -.0013817141
          -.0015969814
          -.0015549933
          -.0015852187
          -.0017133642
          -.0016334506
          -.0013092069
          -.0014926099
          -.0014364297
          -.0015498771
          0.2416304350
          0.6978460550
          0.7524408698
          0.4577119648
          0.2236848921
          0.1722645164
          0.0005198959
          0.0887638107
          0.1099699661
          0.0437153988
          0.0100844493
          0.0082223276
          -.0030378366
          0.0021159374
          0.0031858329
          -.0003335678
          -.0017896239
          -.0013470293
          -.0016928831
          -.0016005797
          -.0016484584
          -.0017515242
          -.0016958244
          -.0013357513
          -.0015388781
          -.0014711483
          -.0016022756
          0.2435313016
          0.7010787725
          0.7620248795
          0.4582846165
          0.2248704135
          0.1712472439
          0.0004347069
          0.0885365009
          0.1102449521
          0.0434382297
          0.0100187762
          0.0081105866
          -.0030156239
          0.0021150867
          0.0031294217
          -.0000887864
          -.0017794501
          -.0010296216
          -.0015702267
          -.0013755888
          -.0016156114
          0.2417502701
          0.6935027242
          0.7597094178
          0.4523431957
          0.2227166742
          0.1686031818
          0.0010054205
          0.0880371407
          0.1089855209
          0.0466360897
          0.0103124231
          0.0126188407
          -.0015364654
          0.0050525325
          0.0038518668
          0.2417615950
          0.6804901361
          0.7456569672
          0.4591924548
          0.2267012298
          0.1936996430
          0.0230632704
          0.1176064983
          0.1167094484
          0.3364239931
          0.7622643113
          0.7278397679
          0.6925231218
          0.3158445358
          0.8232992291
          0.2592509389
          0.6026496887
          0.1947509944
          0.6425220370
          0.2338810563
          0.7386872768
          0.2160271704
          0.5515028834
          0.1786795557
          0.6107220650
          0.2158034891
          0.6950426698
          0.2026036084
          0.5215349197
          0.1686453223
          0.5741613507
          0.2031506300
          0.6565318704
          0.1906569451
          0.4894491136
          0.1575053632
          0.5352533460
          0.1894162148
          0.6153526306
          0.1778375208
          0.4554038346
          0.1458467394
          0.4945620000
          0.1752742082
          0.5717107654
          0.1647844315
          0.4204553962
          0.1353275180
          0.4547943473
          0.1644707024
          0.5258149505
          0.1568488926
          0.3908034265
          0.1360671818
          0.4357421398
          0.1722399890
          0.4785148203
          0.1133359745
          0.0086843055
          0.1598760635
          0.0156627782
          0.0832900256
          0.0113615319
          0.0980490372
          -.0023350520
          0.1232785955
          0.0096748704
          0.0734137371
          0.0113051068
          0.0927279443
          -.0025564013
          0.1142689139
          0.0090330113
          0.0691179484
          0.0106162149
          0.0867575109
          -.0024466747
          0.1073757187
          0.0084263422
          0.0644665211
          0.0097741606
          0.0805470422
          -.0023153704
          0.0999819785
          0.0078091696
          0.0599124692
          0.0093338341
          0.0757495686
          -.0011321176
          0.0926696509
          0.0080983937
          0.0588455275
          0.0126113705
          0.0842701271
          0.0055971593
          0.0895855427
          0.0035327226
          -.0046457080
          0.0070496877
          -.0025726301
          0.0012528107
          -.0020399375
          0.0029206704
          -.0046943077
          0.0037292885
          -.0026408047
          0.0010048721
          -.0018279036
          0.0027496759
          -.0043906909
          0.0034373729
          -.0024776072
          0.0009281979
          -.0017249703
          0.0025228453
          -.0041096304
          0.0031785662
          -.0023266980
          0.0008587263
          -.0015788169
          0.0025139563
          -.0037331250
          0.0029668827
          -.0021005827
          0.0012405836
          -.0010557440
          0.0044038249
          -.0031625419
          0.0034590983
          -.0019539192
          -.0015202657
          -.0018647367
          -.0015672201
          -.0018414569
          -.0013302953
          -.0017777612
          -.0015178801
          -.0019909067
          -.0015570001
          -.0017034832
          -.0012482777
          -.0016689140
          -.0014206918
          -.0018631490
          -.0014598541
          -.0015944360
          -.0011577924
          -.0015321927
          -.0013065020
          -.0017442181
          -.0013260709
          -.0014272564
          -.0009749787
          -.0012511706
          -.0011307038
          -.0015653978
          -.0015267727
          -.0013339795
          -.0014159217
          -.0014323286
          -.0015462034
          -.0012256835
          -.0013918817
          -.0013358439
          -.0014924072
          -.0014239444
          -.0014238579
          -.0011367773
          -.0012785069
          -.0012253164
          -.0013903178
          -.0012903002
          -.0012814732
          -.0009554446
          -.0010823548
          -.0010206307
          -.0012777166
          -.0014772061
          -.0013371570
          -.0013596010
          -.0014223864
          -.0015095590
          -.0012029427
          -.0013178424
          -.0013085962
          -.0014322277
          -.0013644978
          -.0013357548
          -.0010091002
          -.0011090470
          -.0010862012
          -.0013080558
          -.0014364328
          -.0012962472
          -.0013499549
          -.0013471267
          -.0014384445
          -.0010505795
          -.0011696139
          -.0011377801
          -.0013904762
          -.0011927478
          -.0010243632
          -.0012695630
          0.4684937000
          0.1832469851
          0.4313671887
          0.1532784700
          0.3993807435
          0.1586430520
          0.5096589923
          0.1877729297
          0.4729024768
          0.1628101915
          0.4316425920
          0.1722085327
          0.5554260015
          0.2035532445
          0.5157319307
          0.1771337837
          0.4687899351
          0.1863913387
          0.5974647999
          0.2199428082
          0.5584583879
          0.1912081242
          0.5034680367
          0.1995389909
          0.6371365786
          0.2351738513
          0.5987613201
          0.2043854892
          0.5361552238
          0.2119666338
          0.6746269464
          0.2497733086
          0.6366875768
          0.2171005458
          0.5676637292
          0.2251616567
          0.7133229375
          0.2680624127
          0.6723591089
          0.2337685078
          0.6026667356
          0.2534464002
          0.7936567068
          0.3115697503
          0.6977015138
          0.0913695917
          0.0110027241
          0.0923825651
          0.0116746593
          0.0664150044
          0.0149792060
          0.0949744582
          0.0056072744
          0.0932423323
          0.0095954677
          0.0693434477
          0.0161260031
          0.1032027006
          0.0056173438
          0.1003616005
          0.0103100352
          0.0749739408
          0.0173692610
          0.1106729582
          0.0060768053
          0.1081450656
          0.0111190397
          0.0801948905
          0.0184827261
          0.1177806854
          0.0065211309
          0.1154182777
          0.0118760159
          0.0853966847
          0.0198957436
          0.1264516413
          0.0080398414
          0.1226497069
          0.0130319120
          0.0943250358
          0.0256957952
          0.1575528979
          0.0203266386
          0.1349427253
          0.0052690608
          -.0027323745
          0.0059212474
          -.0017476165
          0.0024418975
          -.0012197444
          0.0050923065
          -.0036510578
          0.0044977590
          -.0022823627
          0.0023459196
          -.0012857551
          0.0055216588
          -.0039537419
          0.0047558001
          -.0024474487
          0.0025380687
          -.0013609580
          0.0059045623
          -.0042065065
          0.0051087872
          -.0025927192
          0.0027411077
          -.0013948951
          0.0065181116
          -.0043371725
          0.0054850755
          -.0026613057
          0.0034735419
          -.0009176483
          0.0103060193
          -.0035298520
          0.0066146180
          -.0015110127
          -.0011995293
          -.0011487486
          -.0012978662
          -.0014712210
          -.0011978587
          -.0016106366
          -.0014647125
          -.0015801294
          -.0015183121
          -.0015601589
          -.0012732612
          -.0016965228
          -.0015465447
          -.0016833536
          -.0015953116
          -.0016359617
          -.0013185611
          -.0017413495
          -.0015899938
          -.0017696746
          -.0016155075
          -.0016158107
          -.0012465446
          -.0014703915
          -.0014499004
          -.0017403560
          -.0013966046
          -.0010881410
          -.0010465258
          -.0012564886
          -.0013792448
          -.0011603954
          -.0014454322
          -.0013256400
          -.0013448284
          -.0014543877
          -.0014299945
          -.0012116433
          -.0014776851
          -.0013608661
          -.0014056251
          -.0014646974
          -.0014259445
          -.0011592729
          -.0013963945
          -.0012570556
          -.0014051497
          -.0014228538
          -.0011505396
          -.0010643670
          -.0013191267
          -.0014170989
          -.0011999891
          -.0014341790
          -.0013656082
          -.0013563207
          -.0014660051
          -.0014014016
          -.0011601296
          -.0013511921
          -.0012657451
          -.0013530815
          -.0014641696
          -.0011897034
          -.0011215135
          -.0013326769
          -.0014186901
          -.0011574541
          -.0013600899
          -.0012717509
          -.0013594110
          -.0014540150
          -.0010674748
          -.0011772573
          0.0000000000
          0.0000000000
          0.0000000000
          0.0000000000
          0.0423420481
          0.0195320081
          0.0176764186
          0.0143012898
          0.0474006459
          0.0224981923
          0.0945950672
          0.0304796938
          0.0690718517
          0.0274570175
          0.0902348608
          0.0358668342
          0.1455441117
          0.0466489010
          0.1250799894
          0.0427945033
          0.1333422959
          0.0491301715
          0.1957814842
          0.0626643747
          0.1807862669
          0.0579392165
          0.1758672446
          0.0621665716
          0.2452683896
          0.0784186199
          0.2357600480
          0.0728596896
          0.2177511007
          0.0750620216
          0.2940802574
          0.0941900462
          0.2897828817
          0.0879178569
          0.2596996725
          0.0894854367
          0.3450226784
          0.1141678020
          0.3424144983
          0.1100817546
          0.3099339306
          0.1215112060
          0.4195170999
          0.1575881839
          0.3877179921
          0.0102273934
          0.0006413381
          0.0107838903
          0.0008987709
          0.0094812587
          0.0020106914
          0.0170898456
          -.0006916621
          0.0167080536
          0.0010803661
          0.0145025272
          0.0028163050
          0.0240070969
          -.0012880287
          0.0250552464
          0.0014881594
          0.0195635129
          0.0034277795
          0.0307775866
          -.0019597088
          0.0332836658
          0.0018482073
          0.0245258976
          0.0040397169
          0.0375425071
          -.0025633099
          0.0413803570
          0.0022315560
          0.0297247097
          0.0050283400
          0.0459252745
          -.0021300921
          0.0497371107
          0.0034828540
          0.0390654020
          0.0105856741
          0.0718599856
          0.0042168964
          0.0624211095
          0.0002454285
          -.0008995979
          0.0004098312
          -.0006897482
          -.0000501985
          -.0006000398
          0.0004243833
          -.0011805773
          0.0004110559
          -.0008650809
          0.0000096599
          -.0007220778
          0.0005342129
          -.0014865692
          0.0005636120
          -.0010419682
          0.0000205666
          -.0008488743
          0.0006447058
          -.0017913437
          0.0006833366
          -.0012165442
          0.0000569565
          -.0009430047
          0.0009391190
          -.0020299256
          0.0008597989
          -.0013515325
          0.0004900877
          -.0007385589
          0.0032170711
          -.0022995747
          0.0017386922
          -.0007288703
          -.0006721406
          -.0005956828
          -.0007459510
          -.0007802364
          -.0007080710
          -.0008279671
          -.0008113870
          -.0007822508
          -.0008832967
          -.0008742880
          -.0007823874
          -.0009348990
          -.0008903210
          -.0008999776
          -.0009644247
          -.0009711810
          -.0008385226
          -.0010181451
          -.0009480439