<VTKFile type="UnstructuredGrid" version="0.1" byte_order="LittleEndian">
  <UnstructuredGrid>
    <Piece NumberOfPoints="1152" NumberOfCells="384">
      <PointData Scalars="scalars">
        <DataArray type="Float32" Name="Tracer" Format="ascii">
          0.0335032828
          0.0033506991
          0.0144788995
          0.0012437287
          0.0292738080
          0.0041879220
          0.0774426535
          -.0006104900
          0.0584379062
          0.0029325495
          0.0575612970
          0.0059600919
          0.1198691204
          -.0027854631
          0.1058969721
          0.0050071171
          0.0854321420
          0.0074794758
          0.1618060619
          -.0050762030
          0.1528551280
          0.0070200143
          0.1129460633
          0.0089694634
          0.2031121701
          -.0073505002
          0.1992098838
          0.0090044662
          0.1400195360
          0.0104259495
          0.2436350882
          -.0095875198
          0.2447841465
          0.0109637845
          0.1666542590
          0.0120710358
          0.2839983106
          -.0109170200
          0.2891348600
          0.0146601237
          0.1979279816
          0.0247148145
          0.3580030799
          0.0029286388
          0.3170210123
          0.0009813431
          -.0014861086
          0.0008185359
          -.0006280248
          0.0008718298
          -.0003393210
          0.0016191592
          -.0022527534
          0.0014337262
          -.0009539588
          0.0013235300
          -.0005355563
          0.0021113125
          -.0032964828
          0.0021731777
          -.0013749611
          0.0016798883
          -.0007449175
          0.0025914547
          -.0043433141
          0.0028642593
          -.0017961243
          0.0020263658
          -.0009509943
          0.0030629127
          -.0053727166
          0.0035428847
          -.0022110781
          0.0023732879
          -.0011417950
          0.0036568269
          -.0063214442
          0.0042254580
          -.0026153510
          0.0032320924
          -.0008102690
          0.0088388510
          -.0078282990
          0.0058234921
          -.0002925847
          -.0002320359
          -.0002720441
          -.0002501197
          -.0002510463
          -.0002034253
          -.0003901034
          -.0002654277
          -.0003807282
          -.0002974369
          -.0003125090
          -.0002334691
          -.0005036915
          -.0003032881
          -.0005196758
          -.0003429722
          -.0003831818
          -.0002637235
          -.0006156664
          -.0003413190
          -.0006614032
          -.0003877684
          -.0004522851
          -.0002921487
          -.0007190289
          -.0003747555
          -.0008000692
          -.0004257846
          -.0005039162
          -.0003013268
          -.0007628200
          -.0004395026
          -.0008758305
          -.0002835440
          -.0002531822
          -.0001901329
          -.0003033089
          -.0002794978
          -.0002393423
          -.0003120448
          -.0002909234
          -.0002394508
          -.0003446667
          -.0003072233
          -.0002591605
          -.0003475491
          -.0003171018
          -.0002691280
          -.0003767243
          -.0003399909
          -.0002797096
          -.0003790704
          -.0003408180
          -.0003007133
          -.0004010210
          -.0003628248
          -.0002735959
          -.0003761775
          -.0003233106
          -.0003333317
          -.0003496044
          -.0003121482
          -.0002387605
          -.0003701510
          -.0003440961
          -.0002842839
          -.0003704915
          -.0003490508
          -.0002900909
          -.0004096996
          -.0003659577
          -.0003003372
          -.0003974861
          -.0003698637
          -.0003138515
          -.0004309480
          -.0003846342
          -.0002901985
          -.0003824516
          -.0003473843
          -.0003424702
          -.0004144835
          -.0003654922
          -.0002902190
          -.0004310980
          -.0004055550
          -.0003239858
          -.0004266120
          -.0003970791
          -.0003439523
          -.0004603084
          -.0004123079
          -.0003071560
          -.0004068973
          -.0003682560
          -.0003674060
          -.0004695188
          -.0004106397
          -.0003383048
          -.0004762469
          -.0004496687
          -.0003267640
          -.0004301855
          -.0003895529
          -.0003955636
          -.0004583694
          -.0003838696
          -.0003989192
          0.3111087084
          0.0063902512
          0.3568762839
          0.0150704384
          0.1938813776
          0.0162376761
          0.2792866826
          -.0097016133
          0.2894815207
          0.0105424132
          0.1696579307
          0.0165603142
          0.2365225106
          -.0068185730
          0.2497838438
          0.0098274834
          0.1428533047
          0.0136000458
          0.1921662837
          -.0054985229
          0.2081372887
          0.0084262285
          0.1150143296
          0.0104981801
          0.1470661610
          -.0042615943
          0.1655474305
          0.0069550117
          0.0867149830
          0.0073544737
          0.1013925597
          -.0030098828
          0.1223077849
          0.0054558343
          0.0580825508
          0.0041930778
          0.0554098375
          -.0016770137
          0.0785801187
          0.0039711078
          0.0296441577
          0.0017925841
          0.0142704602
          0.0027093776
          0.0339511596
          0.0049661263
          -.0070791943
          0.0076418947
          -.0035177362
          0.0023577805
          -.0013652893
          0.0046464680
          -.0060053137
          0.0042800135
          -.0029363809
          0.0021649105
          -.0010831330
          0.0039137681
          -.0050066048
          0.0038234969
          -.0024463234
          0.0017735311
          -.0009119494
          0.0030567567
          -.0040440038
          0.0031524175
          -.0019802700
          0.0013298816
          -.0007393985
          0.0021848618
          -.0030714083
          0.0024486082
          -.0015089933
          0.0008798457
          -.0005628663
          0.0013188008
          -.0020800256
          0.0017354935
          -.0010382993
          0.0004744337
          -.0003360629
          0.0012259978
          -.0008987355
          0.0011251200
          -.0009593282
          -.0004074451
          -.0010734053
          -.0004950450
          -.0006054104
          -.0003172490
          -.0008045511
          -.0003750667
          -.0009563672
          -.0004546450
          -.0005158830
          -.0002829258
          -.0006865748
          -.0003322456
          -.0008073513
          -.0004047263
          -.0004431193
          -.0002498206
          -.0005697098
          -.0002904841
          -.0006676008
          -.0003548961
          -.0003702368
          -.0002154944
          -.0004488537
          -.0002461524
          -.0005264104
          -.0002989277
          -.0002897599
          -.0001659455
          -.0003065814
          -.0001846813
          -.0003809406
          -.0004324122
          -.0003539653
          -.0003273882
          -.0004309101
          -.0003738467
          -.0002901256
          -.0003781623
          -.0003466412
          -.0003270797
          -.0004117265
          -.0003300028
          -.0002636613
          -.0003402159
          -.0003165240
          -.0002921946
          -.0003764372
          -.0002961764
          -.0002391003
          -.0002990011
          -.0002855001
          -.0002604799
          -.0003346519
          -.0002546157
          -.0001955001
          -.0002400612
          -.0002287353
          -.0002292398
          -.0004438593
          -.0003822221
          -.0003203345
          -.0004604115
          -.0003931324
          -.0003109039
          -.0003931284
          -.0003771871
          -.0003304877
          -.0004435625
          -.0003512905
          -.0002844383
          -.0003572678
          -.0003450373
          -.0003006320
          -.0004021245
          -.0003114755
          -.0002382237
          -.0002980062
          -.0002823823
          -.0002753679
          -.0004745061
          -.0004051825
          -.0003410639
          -.0004880537
          -.0004207143
          -.0003300828
          -.0004211209
          -.0003997386
          -.0003550098
          -.0004649168
          -.0003691264
          -.0002779174
          -.0003594782
          -.0003303812
          -.0003278630
          -.0004999243
          -.0004239085
          -.0003617031
          -.0005027881
          -.0004345306
          -.0003167429
          -.0004151135
          -.0003750148
          -.0003799843
          -.0004779609
          -.0003810147
          -.0003978501
          -.0006006837
          -.0005126318
          -.0003495999
          -.0006338503
          -.0005017414
          -.0003664212
          -.0005700561
          -.0005046192
          -.0003700541
          -.0006333479
          -.0004902419
          -.0003618224
          -.0005698118
          -.0005026917
          -.0003671770
          -.0006327044
          -.0004900338
          -.0003617503
          -.0005699581
          -.0005026457
          -.0003671351
          -.0006326968
          -.0004904086
          -.0003619422
          -.0005749235
          -.0005012329
          -.0003688546
          -.0006288916
          -.0004937363
          -.0003470622
          -.0004464284
          -.0002829005
          -.0004395313
          0.0002220493
          0.0007141355
          0.0030468041
          0.0214735493
          0.0175089315
          -.0006515768
          0.0324446857
          0.0523495227
          0.1896160245
          0.5592107177
          0.4563961327
          0.0123712569
          -.0006410647
          -.0005190643
          -.0004190608
          -.0006595982
          -.0005406908
          -.0003820568
          -.0006125382
          -.0005126059
          -.0004276538
          -.0006597223
          -.0005293916
          -.0003778330
          -.0006126582
          -.0005108107
          -.0004250582
          -.0006591314
          -.0005292596
          -.0003777531
          -.0006121800
          -.0005103236
          -.0004250308
          -.0006550877
          -.0005235121
          -.0003586778
          -.0003934460
          -.0003101434
          -.0004355898
          0.0002102102
          0.0006532673
          0.0030617532
          0.0197150744
          0.0181595590
          0.0001232047
          0.0329942219
          0.0440572500
          0.1923696846
          0.5118104815
          0.4991004467
          -.0332995728
          -.0006704181
          -.0005387490
          -.0004393697
          -.0006839366
          -.0005658764
          -.0003947295
          -.0006409294
          -.0005314783
          -.0004481317
          -.0006838884
          -.0005541510
          -.0003903921
          -.0006405420
          -.0005291547
          -.0004454499
          -.0006792195
          -.0005480851
          -.0003708576
          -.0004151679
          -.0003241102
          -.0004560383
          0.0001984116
          0.0006704705
          0.0031408696
          0.0203931071
          0.0187458619
          0.0001143669
          0.0337551944
          0.0458222032
          0.1989421248
          0.5350261331
          0.5180951953
          -.0353313535
          -.0006902991
          -.0005501235
          -.0004541575
          -.0006977368
          -.0005825505
          -.0004013202
          -.0006596502
          -.0005416659
          -.0004628928
          -.0006934606
          -.0005645501
          -.0003774014
          -.0004315298
          -.0003330010
          -.0004708828
          0.0001831652
          0.0006777922
          0.0031715489
          0.0207770504
          0.0190444775
          0.0001106726
          0.0339741111
          0.0469603874
          0.2024434209
          0.5508585572
          0.5288099051
          -.0362056568
          -.0006988416
          -.0005528333
          -.0004619900
          -.0006976518
          -.0005841404
          -.0003827229
          -.0004410116
          -.0003385846
          -.0004811432
          0.0001646695
          0.0006743362
          0.0031528266
          0.0208368618
          0.0190459117
          0.0001052020
          0.0336629860
          0.0473661050
          0.2027858049
          0.5580985546
          0.5312712789
          -.0365145169
          -.0004703458
          -.0003609387
          -.0004852350
          0.0001705460
          0.0006542404
          0.0031153332
          0.0205741897
          0.0187585279
          0.0000989346
          0.0328680128
          0.0470254421
          0.1999797076
          0.5566287637
          0.5254446268
          -.0362534001
          0.0200485568
          0.0193509925
          -.0003851447
          0.0373407826
          0.0461088382
          0.1979032308
          0.5463397503
          0.5120990276
          -.0350315757
          0.5182262659
          0.5607068539
          0.0060584880
          0.0112497471
          0.4527009726
          0.5678931475
          0.1944842935
          0.0379859060
          0.0150558464
          -.0066202665
          0.0046706349
          0.0136819556
          0.0014871237
          -.0016457078
          -.0005930591
          -.0006380248
          -.0006420774
          -.0007151800
          -.0006543646
          -.0005251118
          -.0003676584
          -.0005398961
          -.0005108696
          -.0003786074
          -.0006136602
          -.0004956422
          -.0003630711
          -.0005391779
          -.0005088202
          -.0003667802
          -.0006128079
          -.0004953449
          -.0003631494
          -.0005391660
          -.0005088288
          -.0003665944
          -.0006127666
          -.0004952684
          -.0003629530
          -.0005376822
          -.0005077362
          -.0003665135
          -.0006089912
          -.0004889611
          -.0003471092
          -.0004818504
          -.0004657163
          -.0003631382
          -.0361881889
          0.4933824241
          0.5182633400
          0.2029903233
          0.0311396327
          0.0185857229
          -.0068397885
          0.0053285500
          0.0095916837
          0.0016051596
          -.0016922122
          -.0005190749
          -.0006231408
          -.0006470800
          -.0006760731
          -.0006769227
          -.0005584055
          -.0003864910
          -.0005910011
          -.0005149278
          -.0004360929
          -.0006410157
          -.0005414953
          -.0003794012
          -.0005917302
          -.0005122087
          -.0004318500
          -.0006401672
          -.0005414011
          -.0003791531
          -.0005905907
          -.0005111084
          -.0004319348
          -.0006363014
          -.0005360348
          -.0003638889
          -.0005471758
          -.0004667563
          -.0004336152
          -.0374065340
          0.5121837258
          0.5426502824
          0.2099543959
          0.0324774757
          0.0187903810
          -.0070640221
          0.0054309638
          0.0099493200
          0.0016172311
          -.0017570325
          -.0005417565
          -.0006506740
          -.0006718465
          -.0007056554
          -.0007021023
          -.0005842561
          -.0003990167
          -.0006184761
          -.0005336456
          -.0004574819
          -.0006646072
          -.0005667974
          -.0003916184
          -.0006180449
          -.0005297466
          -.0004532376
          -.0006598568
          -.0005612207
          -.0003758942
          -.0005733303
          -.0004839025
          -.0004549838
          -.0383921042
          0.5227647424
          0.5586452484
          0.2135653347
          0.0332254358
          0.0186981261
          -.0071966005
          0.0054362542
          0.0101197027
          0.0015999890
          -.0017990691
          -.0005555219
          -.0006687187
          -.0006863774
          -.0007269224
          -.0007164203
          -.0006011392
          -.0004051545
          -.0006356908
          -.0005431239
          -.0004727944
          -.0006740383
          -.0005778432
          -.0003821490
          -.0005910791
          -.0004938280
          -.0004701130
          -.0387843363
          0.5251901746
          0.5659123659
          0.2138435096
          0.0334538594
          0.0183143131
          -.0072170412
          0.0053568003
          0.0101314075
          0.0015580372
          -.0018130501
          -.0005601457
          -.0006751260
          -.0006889941
          -.0007369778
          -.0007147660
          -.0006031521
          -.0003885156
          -.0005988381
          -.0004985809
          -.0004822876
          -.0385707878
          0.5194209814
          0.5643484592
          0.2107982039
          0.0331594050
          0.0176697187
          -.0071178162
          0.0052098045
          0.0099862283
          0.0016211586
          -.0018118955
          -.0004057689
          -.0006205461
          -.0005987011
          -.0007317488
          -.0374248773
          0.5059863329
          0.5539118648
          0.2082413584
          0.0324556082
          0.0231784023
          -.0054527014
          0.0081769787
          0.0102075012
          0.0049148463
          0.5604512095
          0.5209208727
          0.5514577031
          -.0006863121
          0.6987210512
          0.0341014601
          0.3649251461
          0.0157885253
          0.5308033824
          -.0318495817
          0.6079211235
          0.0254386701
          0.3452114165
          0.0173016861
          0.5033760667
          -.0295944847
          0.5780031085
          0.0244592428
          0.3267402649
          0.0161890537
          0.4733097553
          -.0280757546
          0.5459322929
          0.0230751000
          0.3066663742
          0.0149491839
          0.4413924217
          -.0265205652
          0.5116289854
          0.0215792954
          0.2853849232
          0.0136519298
          0.4077607095
          -.0248560086
          0.4753226638
          0.0200050026
          0.2630813122
          0.0124956407
          0.3733351529
          -.0222932938
          0.4369471371
          0.0196035746
          0.2442989945
          0.0202771835
          0.3720120192
          -.0023705978
          0.3863108158
          0.0058507873
          -.0137481652
          0.0138147343
          -.0055807997
          0.0042250417
          -.0028333967
          0.0056144334
          -.0132544283
          0.0085003152
          -.0053816484
          0.0039838501
          -.0026235413
          0.0053114193
          -.0125094019
          0.0081142494
          -.0050808587
          0.0037335982
          -.0024801397
          0.0049265185
          -.0117449621
          0.0076183081
          -.0047746673
          0.0034463033
          -.0023284017
          0.0045214654
          -.0109369438
          0.0070809154
          -.0044515291
          0.0031516086
          -.0021576798
          0.0042124786
          -.0100358939
          0.0065297112
          -.0041072662
          0.0032917238
          -.0015322780
          0.0076496173
          -.0093939044
          0.0067036059
          -.0015744955
          -.0005699889
          -.0018662394
          -.0006637419
          -.0009876670
          -.0004458420
          -.0014647706
          -.0005431083
          -.0018498696
          -.0006436361
          -.0009231689
          -.0004194750
          -.0013845409
          -.0005111043
          -.0017451786
          -.0006090827
          -.0008720041
          -.0003957670
          -.0013009834
          -.0004806398
          -.0016421757
          -.0005738014
          -.0008182120
          -.0003699751
          -.0012068122
          -.0004453020
          -.0015329838
          -.0005305274
          -.0007445575
          -.0003182803
          -.0010461402
          -.0004251915
          -.0013762871
          -.0005650048
          -.0004684129
          -.0004470958
          -.0005288864
          -.0005244837
          -.0003592062
          -.0005167194
          -.0004363889
          -.0004720056
          -.0005121037
          -.0004832032
          -.0003389990
          -.0004889655
          -.0004120715
          -.0004428072
          -.0004849115
          -.0004562748
          -.0003193300
          -.0004569200
          -.0003863736
          -.0004182092
          -.0004501987
          -.0004190712
          -.0002725136
          -.0003898190
          -.0003219159
          -.0003954725
          -.0005321478
          -.0004777880
          -.0004036887
          -.0005294002
          -.0005073540
          -.0003585412
          -.0004857639
          -.0004450711
          -.0004303878
          -.0005123107
          -.0004667027
          -.0003375112
          -.0004568109
          -.0004173366
          -.0004037931
          -.0004775182
          -.0004309186
          -.0002894824
          -.0003878828
          -.0003498869
          -.0003855582
          -.0005318513
          -.0004780507
          -.0004035039
          -.0005292735
          -.0005067943
          -.0003575304
          -.0004822714
          -.0004421859
          -.0004304631
          -.0005041511
          -.0004557414
          -.0003064826
          -.0004120705
          -.0003707435
          -.0004078893
          -.0005282499
          -.0004742686
          -.0004038339
          -.0005191193
          -.0004958850
          -.0003231638
          -.0004349636
          -.0003915663
          -.0004348676
          -.0004576870
          -.0003888128
          -.0004017194
          0.3817309439
          0.0068030655
          0.3733754456
          0.0149690732
          0.2468161285
          0.0265395381
          0.4257845581
          -.0126615949
          0.3844937086
          0.0119588003
          0.2708697617
          0.0315258726
          0.4634734988
          -.0126784090
          0.4211577773
          0.0137096792
          0.2942399681
          0.0340527035
          0.4987088442
          -.0135647319
          0.4558880627
          0.0150021873
          0.3160819411
          0.0363660194
          0.5320002437
          -.0144840293
          0.4887340665
          0.0162060373
          0.3366795480
          0.0385367423
          0.5632172823
          -.0153471064
          0.5196685791
          0.0173409432
          0.3559850454
          0.0405934267
          0.5928002000
          -.0157726798
          0.5485523939
          0.0179960318
          0.3750297427
          0.0477579348
          0.6836620569
          -.0069963299
          0.5581190586
          0.0079350155
          -.0081016747
          0.0087540075
          -.0040654214
          0.0042718570
          -.0016845993
          0.0085123032
          -.0093817785
          0.0064116754
          -.0046210694
          0.0045475634
          -.0017575137
          0.0092903450
          -.0101614734
          0.0070752902
          -.0049862838
          0.0049258033
          -.0018941050
          0.0099452464
          -.0109066665
          0.0076516187
          -.0053449571
          0.0052533904
          -.0020263372
          0.0105582979
          -.0116137862
          0.0081831021
          -.0056843669
          0.0055582100
          -.0021516294
          0.0111384485
          -.0122764995
          0.0086829299
          -.0060058990
          0.0059498833
          -.0021561293
          0.0148763265
          -.0124916555
          0.0091311131
          -.0011446628
          -.0004292348
          -.0011653262
          -.0005288715
          -.0007429760
          -.0003936383
          -.0012299864
          -.0004986476
          -.0014099514
          -.0005908580
          -.0007963738
          -.0004163090
          -.0013212729
          -.0005298394
          -.0015189887
          -.0006292586
          -.0008523094
          -.0004412888
          -.0014100522
          -.0005607361
          -.0016267244
          -.0006663660
          -.0009060741
          -.0004643498
          -.0014923654
          -.0005881162
          -.0017294053
          -.0006929864
          -.0009420838
          -.0004588090
          -.0015254205
          -.0005209205
          -.0018272779
          -.0004917613
          -.0003565663
          -.0003347704
          -.0004464432
          -.0004345805
          -.0003311005
          -.0005045961
          -.0004019798
          -.0003980763
          -.0004900243
          -.0004499546
          -.0003460252
          -.0005339797
          -.0004221832
          -.0004196641
          -.0005158161
          -.0004746660
          -.0003624554
          -.0005593403
          -.0004412089
          -.0004438291
          -.0005338278
          -.0004861832
          -.0003568436
          -.0005612479
          -.0003992872
          -.0004620287
          -.0004900817
          -.0003859100
          -.0003232702
          -.0004750900
          -.0004450312
          -.0003486612
          -.0004969614
          -.0004316497
          -.0003822931
          -.0005173445
          -.0004563254
          -.0003612243
          -.0005195517
          -.0004485863
          -.0003993164
          -.0005339365
          -.0004662512
          -.0003554118
          -.0005203495
          -.0004089219
          -.0004150707
          -.0005177348
          -.0004087149
          -.0003438083
          -.0005018856
          -.0004693790
          -.0003656724
          -.0005192699
          -.0004518211
          -.0004036241
          -.0005356767
          -.0004664678
          -.0003558848
          -.0005198437
          -.0004095190
          -.0004149405
          -.0005417718
          -.0004288178
          -.0003642869
          -.0005195424
          -.0004798978
          -.0003610420
          -.0005200779
          -.0004129723
          -.0004197170
          -.0005618828
          -.0003945372
          -.0004005530
          0.0000000000
          0.0000000000
          0.0000000000
          0.0000000000
          0.0294814203
          -.0014826901
          0.0123328669
          -.0009148936
          0.0220740866
          0.0001547723
          0.0682706535
          -.0101730293
          0.0517333113
          -.0017788718
          0.0437282734
          -.0005477266
          0.1058093235
          -.0181749240
          0.0937381387
          -.0025472390
          0.0649820194
          -.0013712887
          0.1429278702
          -.0261822361
          0.1353014708
          -.0033266768
          0.0859708637
          -.0021888483
          0.1794885993
          -.0340886228
          0.1763335317
          -.0040934961
          0.1066239253
          -.0029978342
          0.2153483778
          -.0418619215
          0.2166769803
          -.0048436206
          0.1268955469
          -.0037219282
          0.2506381273
          -.0491793305
          0.2560469806
          -.0047552846
          0.1502326578
          0.0030828360
          0.3165166676
          -.0503402501
          0.2796722353
          -.0000282428
          -.0009189494
          -.0002026074
          -.0004214073
          0.0002482741
          -.0002082103
          -.0001714434
          -.0012860347
          -.0003349903
          -.0006354225
          0.0003285149
          -.0003209308
          -.0003865513
          -.0018528020
          -.0005184403
          -.0009046815
          0.0003595724
          -.0004370222
          -.0006016588
          -.0024194315
          -.0007182581
          -.0011725908
          0.0003878824
          -.0005513611
          -.0008144227
          -.0029767491
          -.0009157611
          -.0014359226
          0.0004156907
          -.0006613329
          -.0009841991
          -.0035035529
          -.0011072620
          -.0016928376
          0.0006442741
          -.0005245123
          0.0011316547
          -.0045428108
          -.0008320836
          -.0001885245
          -.0001461576
          -.0001552948
          -.0001705103
          -.0001519538
          -.0001230143
          -.0002445154
          -.0001653509
          -.0002186643
          -.0002004482
          -.0001848705
          -.0001386938
          -.0003082037
          -.0001864989
          -.0002955351
          -.0002293124
          -.0002222450
          -.0001550277
          -.0003708412
          -.0002077511
          -.0003734234
          -.0002576020
          -.0002588685
          -.0001706255
          -.0004300598
          -.0002268997
          -.0004499627
          -.0002821459
          -.0002870717
          -.0001715329
          -.0004516944
          -.0002433732
          -.0005017619
          -.0001955669
          -.0001741807
          -.0001155057
          -.0002141786
          -.0001833627
          -.0001497674
          -.0002157159
          -.0001954781
          -.0001421344
          -.0002408582
          -.0002017164
          -.0001617304
          -.0002398675
          -.0002134867
          -.0001598557
          -.0002637232
          -.0002233486
          -.0001745913
          -.0002620695
          -.0002305299