<VTKFile type="UnstructuredGrid" version="0.1" byte_order="LittleEndian">
  <UnstructuredGrid>
    <Piece NumberOfPoints="1152" NumberOfCells="384">
      <PointData Scalars="scalars">
        <DataArray type="Float32" Name="Tracer" Format="ascii">
          0.0423420481
          0.0195320081
          0.0176764186
          0.0143012898
          0.0474006459
          0.0224981923
          0.0945950672
          0.0304796938
          0.0690718517
          0.0274570175
          0.0902348608
          0.0358668342
          0.1455441117
          0.0466489010
          0.1250799894
          0.0427945033
          0.1333422959
          0.0491301715
          0.1957814842
          0.0626643747
          0.1807862669
          0.0579392165
          0.1758672446
          0.0621665716
          0.2452683896
          0.0784186199
          0.2357600480
          0.0728596896
          0.2177511007
          0.0750620216
          0.2940802574
          0.0941900462
          0.2897828817
          0.0879178569
          0.2596996725
          0.0894854367
          0.3450226784
          0.1141678020
          0.3424144983
          0.1100817546
          0.3099339306
          0.1215112060
          0.4195170999
          0.1575881839
          0.3877179921
          0.0102273934
          0.0006413381
          0.0107838903
          0.0008987709
          0.0094812587
          0.0020106914
          0.0170898456
          -.0006916621
          0.0167080536
          0.0010803661
          0.0145025272
          0.0028163050
          0.0240070969
          -.0012880287
          0.0250552464
          0.0014881594
          0.0195635129
          0.0034277795
          0.0307775866
          -.0019597088
          0.0332836658
          0.0018482073
          0.0245258976
          0.0040397169
          0.0375425071
          -.0025633099
          0.0413803570
          0.0022315560
          0.0297247097
          0.0050283400
          0.0459252745
          -.0021300921
          0.0497371107
          0.0034828540
          0.0390654020
          0.0105856741
          0.0718599856
          0.0042168964
          0.0624211095
          0.0002454285
          -.0008995979
          0.0004098312
          -.0006897482
          -.0000501985
          -.0006000398
          0.0004243833
          -.0011805773
          0.0004110559
          -.0008650809
          0.0000096599
          -.0007220778
          0.0005342129
          -.0014865692
          0.0005636120
          -.0010419682
          0.0000205666
          -.0008488743
          0.0006447058
          -.0017913437
          0.0006833366
          -.0012165442
          0.0000569565
          -.0009430047
          0.0009391190
          -.0020299256
          0.0008597989
          -.0013515325
          0.0004900877
          -.0007385589
          0.0032170711
          -.0022995747
          0.0017386922
          -.0007288703
          -.0006721406
          -.0005956828
          -.0007459510
          -.0007802364
          -.0007080710
          -.0008279671
          -.0008113870
          -.0007822508
          -.0008832967
          -.0008742880
          -.0007823874
          -.0009348990
          -.0008903210
          -.0008999776
          -.0009644247
          -.0009711810
          -.0008385226
          -.0010181451
          -.0009480439
          -.0010134827
          -.0010109869
          -.0010255990
          -.0008248688
          -.0010059981
          -.0009586168
          -.0010787048
          -.0008675962
          -.0007823441
          -.0006894863
          -.0008869302
          -.0009279660
          -.0008289265
          -.0009323680
          -.0009284603
          -.0008875168
          -.0010201499
          -.0009916285
          -.0008770947
          -.0009803354
          -.0009693948
          -.0009574043
          -.0010486529
          -.0010193606
          -.0008367718
          -.0009492918
          -.0009114223
          -.0010068122
          -.0010185478
          -.0009148622
          -.0008225681
          -.0010275518
          -.0010801024
          -.0009370933
          -.0010457791
          -.0010406375
          -.0010299311
          -.0011195095
          -.0010860718
          -.0008855674
          -.0009888959
          -.0009668590
          -.0010638653
          -.0011339720
          -.0010112752
          -.0009513928
          -.0011045728
          -.0011696488
          -.0009274426
          -.0010453509
          -.0010148544
          -.0011374170
          -.0010904405
          -.0009132557
          -.0010566211
          0.3727761209
          0.1533287466
          0.4101961255
          0.1223408505
          0.3019047081
          0.1009209231
          0.3261869550
          0.1151275039
          0.3510840535
          0.0995730832
          0.2585756183
          0.0873636603
          0.2768242955
          0.0987675041
          0.3015976846
          0.0854401588
          0.2177648991
          0.0726322457
          0.2245051414
          0.0815825388
          0.2515863180
          0.0703749657
          0.1750338972
          0.0571028069
          0.1713133454
          0.0636166856
          0.2002026886
          0.0548138358
          0.1315572858
          0.0413358174
          0.1175006479
          0.0454202369
          0.1480111182
          0.0390723199
          0.0877079666
          0.0256576855
          0.0639370978
          0.0278363191
          0.0952333808
          0.0240774881
          0.0454352088
          0.0131347356
          0.0182117261
          0.0190427676
          0.0428344607
          0.0567597263
          0.0036427812
          0.0700559467
          0.0048603392
          0.0370576493
          0.0045957319
          0.0473486744
          -.0016196421
          0.0515462086
          0.0023361784
          0.0305680558
          0.0042929500
          0.0398797579
          -.0013107711
          0.0436000042
          0.0020692027
          0.0253391657
          0.0033699977
          0.0316721536
          -.0010990025
          0.0355806462
          0.0016464975
          0.0197205413
          0.0023615635
          0.0233196430
          -.0009469928
          0.0272571631
          0.0011846256
          0.0140435565
          0.0013955340
          0.0151712764
          -.0006387188
          0.0188717470
          0.0007777289
          0.0090059247
          0.0011317974
          0.0111438707
          0.0013945739
          0.0114536490
          0.0009773180
          -.0024029172
          0.0019901849
          -.0017053123
          -.0001040970
          -.0011702324
          0.0007248304
          -.0022406855
          0.0005766818
          -.0015908598
          -.0001427718
          -.0009987488
          0.0005371296
          -.0019067021
          0.0004585281
          -.0013785783
          -.0001897027
          -.0008774417
          0.0002922291
          -.0015841267
          0.0002805261
          -.0011749674
          -.0002583065
          -.0007474173
          0.0000774623
          -.0012419886
          0.0000916469
          -.0009508902
          -.0002517763
          -.0005328410
          0.0003247656
          -.0008006344
          -.0000046529
          -.0012539149
          -.0009741173
          -.0011106263
          -.0010768841
          -.0011352823
          -.0008855084
          -.0010956773
          -.0009994919
          -.0011463641
          -.0010743041
          -.0010034264
          -.0008140510
          -.0009679994
          -.0009058048
          -.0010144566
          -.0009730234
          -.0008874608
          -.0007247040
          -.0008294210
          -.0007960618
          -.0008864217
          -.0008443872
          -.0007444412
          -.0005844950
          -.0006541169
          -.0006382794
          -.0007455415
          -.0011070459
          -.0009491803
          -.0008926622
          -.0010831075
          -.0010696903
          -.0009098193
          -.0009954056
          -.0010152988
          -.0009933746
          -.0011034786
          -.0009650956
          -.0008368301
          -.0008834685
          -.0009183486
          -.0009021346
          -.0009812925
          -.0008377301
          -.0006923052
          -.0007408545
          -.0007520774
          -.0007998153
          -.0011618079
          -.0010083194
          -.0009251444
          -.0011447306
          -.0011284051
          -.0009559879
          -.0010343347
          -.0010637706
          -.0010430369
          -.0011338691
          -.0009865970
          -.0008079521
          -.0008807350
          -.0008833141
          -.0009405825
          -.0012041150
          -.0010414423
          -.0009788645
          -.0011518811
          -.0011408364
          -.0009004907
          -.0010164765
          -.0009919595
          -.0010813371
          -.0011379240
          -.0009083844
          -.0010292019
          -.0013649582
          -.0012813880
          -.0009808973
          -.0014706273
          -.0013178830
          -.0011250036
          -.0012946953
          -.0013426126
          -.0011397226
          -.0015017983
          -.0012894559
          -.0011083864
          -.0012897458
          -.0013325558
          -.0011285829
          -.0014961356
          -.0012870822
          -.0011067062
          -.0012934854
          -.0013285266
          -.0011297807
          -.0014815332
          -.0012825015
          -.0010651695
          -.0011327200
          -.0011100289
          -.0011809702
          -.0008035648
          -.0004435467
          0.0009498167
          0.0067299283
          0.0055110636
          -.0005941846
          0.0159798227
          0.0216738600
          0.0414472297
          0.1228389591
          0.0992921144
          0.0329827927
          0.1866248697
          0.2236950248
          0.4012826979
          0.7185456157
          0.6320699453
          0.2875710130
          -.0015248695
          -.0013101423
          -.0012137140
          -.0015351120
          -.0014434343
          -.0011770346
          -.0014415174
          -.0013707079
          -.0013193961
          -.0015650473
          -.0014104089
          -.0011620563
          -.0014340719
          -.0013573958
          -.0013079373
          -.0015442710
          -.0013882322
          -.0011074034
          -.0011891552
          -.0011265053
          -.0013030786
          -.0008320009
          -.0005189771
          0.0009277512
          0.0058772862
          0.0055085765
          -.0005585370
          0.0161315110
          0.0191331524
          0.0398588628
          0.1042312235
          0.0983205214
          0.0253576003
          0.1840032637
          0.2016507536
          0.3966047764
          0.6709199548
          0.6570350528
          0.2162241638
          -.0015926579
          -.0013611462
          -.0012706877
          -.0015918537
          -.0015063959
          -.0012180028
          -.0015016499
          -.0014176600
          -.0013785072
          -.0016060892
          -.0014515632
          -.0011490639
          -.0012463308
          -.0011739110
          -.0013612051
          -.0008807365
          -.0005561739
          0.0009274269
          0.0060058953
          0.0056209289
          -.0005945244
          0.0164243318
          0.0196659043
          0.0408575721
          0.1071135998
          0.1014252305
          0.0258298889
          0.1892227679
          0.2083069831
          0.4096453786
          0.6967448592
          0.6826240420
          0.2200714350
          -.0016349764
          -.0013895957
          -.0013120330
          -.0016113329
          -.0015274757
          -.0011888542
          -.0012922621
          -.0012141196
          -.0014151037
          -.0009219505
          -.0005895083
          0.0009113583
          0.0060538324
          0.0056533758
          -.0006283579
          0.0164530072
          0.0199801773
          0.0412853584
          0.1091523543
          0.1030525714
          0.0262680054
          0.1915217340
          0.2129767239
          0.4168941379
          0.7172387838
          0.6968255043
          0.2255384028
          -.0014060327
          -.0011832825
          -.0013388593
          -.0009170913
          -.0006456226
          0.0008818193
          0.0060085598
          0.0055964966
          -.0006633481
          0.0162591264
          0.0199782364
          0.0410966873
          0.1095006764
          0.1030780748
          0.0263021141
          0.1908417046
          0.2143405676
          0.4176469147
          0.7266467214
          0.7001196146
          0.2275537848
          0.0058973450
          0.0058452766
          -.0006975489
          0.0172946267
          0.0198346339
          0.0417410396
          0.1082115024
          0.1019723117
          0.0261353776
          0.1879954934
          0.2123593986
          0.4122597277
          0.7246878147
          0.6925714016
          0.2260675579
          0.1091411710
          0.1141558066
          0.0304791592
          0.2050782591
          0.2134701312
          0.4183418453
          0.7106937170
          0.6792123914
          0.2254133821
          0.7062708139
          0.7459676266
          0.3075848222
          0.2805019021
          0.6228201985
          0.7441464663
          0.4090696871
          0.2103568465
          0.1407434642
          0.0079535665
          0.0721850991
          0.1142743677
          0.0344361402
          0.0089303786
          0.0039969981
          -.0025101833
          0.0007108264
          0.0028845156
          -.0007250790
          -.0015332309
          -.0011886589
          -.0013262696
          -.0013827449
          -.0013261216
          -.0014730101
          -.0013270798
          -.0011235812
          -.0012458034
          -.0013343408
          -.0011818997
          -.0014484894
          -.0013009354
          -.0011214371
          -.0012433374
          -.0013315440
          -.0011687726
          -.0014458884
          -.0012974750
          -.0011166413
          -.0012261154
          -.0013193496
          -.0011625834
          -.0014198696
          -.0012576866
          -.0010524741
          -.0010744015
          -.0012095455
          -.0011065628
          0.2001032084
          0.6423776150
          0.6864145398
          0.4087331593
          0.1862322092
          0.1438251585
          -.0044356678
          0.0699745640
          0.0877154097
          0.0328334644
          0.0055585867
          0.0050796783
          -.0025189684
          0.0008126239
          0.0014299010
          -.0007262949
          -.0015735747
          -.0011923385
          -.0014111613
          -.0013760614
          -.0013803777
          -.0015257858
          -.0014362804
          -.0011796842
          -.0013852329
          -.0013463991
          -.0013379747
          -.0015105843
          -.0014244185
          -.0011705796
          -.0013747960
          -.0013338089
          -.0013330120
          -.0014856183
          -.0013953758
          -.0011153207
          -.0012803978
          -.0012332927
          -.0013076541
          0.2057801783
          0.6679494381
          0.7142660618
          0.4226851463
          0.1928961873
          0.1476865113
          -.0046892576
          0.0721978694
          0.0902760625
          0.0336321034
          0.0057013477
          0.0050871982
          -.0025984561
          0.0007867526
          0.0014448889
          -.0007781311
          -.0016399254
          -.0012388921
          -.0014730040
          -.0014282020
          -.0014411869
          -.0015803950
          -.0014975086
          -.0012169603
          -.0014368562
          -.0013859345
          -.0013970875
          -.0015413535
          -.0014579915
          -.0011557436
          -.0013427297
          -.0012805011
          -.0013695169
          0.2107789814
          0.6817790866
          0.7351433039
          0.4299405515
          0.1970651001
          0.1490392387
          -.0048453081
          0.0731177479
          0.0919522569
          0.0338622928
          0.0057357866
          0.0049965875
          -.0026541871
          0.0007408514
          0.0014125741
          -.0008183956
          -.0016848131
          -.0012600205
          -.0015041381
          -.0014485086
          -.0014839900
          -.0015845321
          -.0015094788
          -.0011803674
          -.0013844218
          -.0013113929
          -.0014148747
          0.2124343067
          0.6849612594
          0.7445113063
          0.4304831624
          0.1981426924
          0.1480758190
          -.0049268231
          0.0729058459
          0.0921807364
          0.0336167142
          0.0056801480
          0.0048967274
          -.0026445647
          0.0007293499
          0.0013650167
          -.0006716580
          -.0016807631
          -.0010570496
          -.0014102516
          -.0012892361
          -.0014674232
          0.2108484507
          0.6775399446
          0.7422547340
          0.4247610569
          0.1962198019
          0.1455458105
          -.0045031160
          0.0723052695
          0.0910798237
          0.0358784087
          0.0057767909
          0.0081779147
          -.0016802913
          0.0027354793
          0.0018073294
          0.2103487998
          0.6639537215
          0.7284005284
          0.4300225973
          0.1983802021
          0.1676283032
          0.0130622759
          0.0966309085
          0.0965953916
          0.3026405871
          0.7464874983
          0.7080736160
          0.6801828742
          0.2863996923
          0.8150650859
          0.2331668735
          0.5809164643
          0.1717728376
          0.6332391500
          0.2059988081
          0.7276492119
          0.1930322051
          0.5328782201
          0.1590758562
          0.6019270420
          0.1908791065
          0.6855745316
          0.1815552562
          0.5041658282
          0.1501949131
          0.5658801198
          0.1797182411
          0.6476559639
          0.1708793789
          0.4731499255
          0.1402384639
          0.5275517106
          0.1675297320
          0.6070241332
          0.1594008505
          0.4402372837
          0.1298056841
          0.4874097109
          0.1549406797
          0.5639690757
          0.1476338953
          0.4063630104
          0.1203424111
          0.4481504858
          0.1454771608
          0.5185976028
          0.1405870914
          0.3781533539
          0.1228405535
          0.4318678677
          0.1567836106
          0.4708737135
          0.0951253399
          -.0012898073
          0.1368354559
          0.0081499796
          0.0673395023
          0.0060300715
          0.0830415636
          -.0091995392
          0.1046331599
          0.0039665466
          0.0598149113
          0.0063749338
          0.0785950944
          -.0088272346
          0.0974240005
          0.0037266938
          0.0563510582
          0.0059624701
          0.0735239238
          -.0083288951
          0.0915573612
          0.0034569968
          0.0525428168
          0.0054501477
          0.0682305172
          -.0077969739
          0.0852435976
          0.0031789448
          0.0487798564
          0.0052323472
          0.0640594661
          -.0064411215
          0.0789443478
          0.0035435618
          0.0479993448
          0.0081871990
          0.0724984482
          -.0005309703
          0.0762345418
          0.0009709335
          -.0041730711
          0.0032500641
          -.0024968530
          -.0002859943
          -.0019288998
          0.0007499960
          -.0041046473
          0.0009952557
          -.0024830950
          -.0003360205
          -.0017537144
          0.0007025240
          -.0038412372
          0.0009121312
          -.0023323181
          -.0003302038
          -.0016543632
          0.0006156740
          -.0035967580
          0.0008188251
          -.0021904672
          -.0003204408
          -.0015248132
          0.0006796644
          -.0032873347
          0.0007587583
          -.0019983980
          0.0000076058
          -.0011338405
          0.0021617636
          -.0029236446
          0.0012196522
          -.0017631927
          -.0012822930
          -.0017088127
          -.0013672890
          -.0016313855
          -.0011481124
          -.0016042135
          -.0012767133
          -.0017856061
          -.0013556732
          -.0015080373
          -.0010780491
          -.0015078039
          -.0011961727
          -.0016714474
          -.0012728772
          -.0014136997
          -.0010023881
          -.0013899822
          -.0011028446
          -.0015671354
          -.0011591762
          -.0012746886
          -.0008481885
          -.0011713597
          -.0009495408
          -.0014228197
          -.0013515055
          -.0011919375
          -.0012356279
          -.0012818448
          -.0013668486
          -.0010799011
          -.0012311207
          -.0011863380
          -.0013029642
          -.0012707982
          -.0012582173
          -.0010030288
          -.0011345346
          -.0010910305
          -.0012148852
          -.0011556271
          -.0011362883
          -.0008457733
          -.0009613510
          -.0009100634
          -.0011213521
          -.0013206210
          -.0011964556
          -.0012006026
          -.0012761469
          -.0013435833
          -.0010638379
          -.0011794553
          -.0011663807
          -.0012653623
          -.0012238180
          -.0011908893
          -.0008948495
          -.0009953734
          -.0009701812
          -.0011597492
          -.0012889865
          -.0011639273
          -.0011946667
          -.0012146346
          -.0012858479
          -.0009342395
          -.0010508879
          -.0010183261
          -.0012349777
          -.0010770679
          -.0009250734
          -.0011305356
          0.4612545073
          0.1676343679
          0.4280991256
          0.1375534832
          0.3858145773
          0.1426574141
          0.5026479363
          0.1670135409
          0.4655373394
          0.1442782581
          0.4170844555
          0.1554264128
          0.5478460193
          0.1813588887
          0.5078799129
          0.1572370976
          0.4530726373
          0.1682672650
          0.5893187523
          0.1960067153
          0.5499657393
          0.1697776914
          0.4865962565
          0.1801144928
          0.6284702420
          0.2095801830
          0.5896472931
          0.1815068424
          0.5181879401
          0.1912914664
          0.6653922200
          0.2225273997
          0.6269930005
          0.1927200258
          0.5484800935
          0.2029668391
          0.7032629848
          0.2386073321
          0.6620085835
          0.2069052756
          0.5824173689
          0.2294089049
          0.7870650291
          0.2815942764
          0.6859081984
          0.0778417587
          0.0040558088
          0.0797293559
          0.0063117519
          0.0542980134
          0.0097427899
          0.0811443701
          -.0010854690
          0.0791030824
          0.0043182308
          0.0568120070
          0.0106383683
          0.0882257298
          -.0014579264
          0.0853276923
          0.0046644155
          0.0614584684
          0.0114551457
          0.0946094617
          -.0015299739
          0.0919588059
          0.0050525302
          0.0657321885
          0.0121735288
          0.1006559730
          -.0016067065
          0.0981414318
          0.0054019587
          0.0699299201
          0.0130799375
          0.1077934206
          -.0009138556
          0.1041992679
          0.0059216684
          0.0770339072
          0.0174202602
          0.1351080835
          0.0085415188
          0.1141694039
          0.0026659023
          -.0026511676
          0.0031914948
          -.0017922935
          0.0008245251
          -.0013331610
          0.0025061907
          -.0033484432
          0.0019374905
          -.0022080485
          0.0007194352
          -.0014060985
          0.0027288522
          -.0036120703
          0.0020430875
          -.0023642262
          0.0007877582
          -.0014929562
          0.0029155370
          -.0038460114
          0.0021985243
          -.0025082007
          0.0008595290
          -.0015527252
          0.0032482347
          -.0039982740
          0.0023646699
          -.0025959369
          0.0012967255
          -.0012499844
          0.0059116813
          -.0034770065
          0.0030251509
          -.0014277654
          -.0010163201
          -.0011120175
          -.0011381233
          -.0013342812
          -.0010399747
          -.0015051104
          -.0012312350
          -.0014572281
          -.0013196267
          -.0014060662
          -.0011025092
          -.0015884351
          -.0012973871
          -.0015487608
          -.0013859457
          -.0014772689
          -.0011441254
          -.0016423614
          -.0013363641
          -.0016323335
          -.0014070453
          -.0014761040
          -.0010917005
          -.0014745997
          -.0012206961
          -.0016324490
          -.0012389366
          -.0009714643
          -.0009201361
          -.0011276472
          -.0012182692
          -.0010240015
          -.0012760024
          -.0011740779
          -.0011731306
          -.0012958334
          -.0012596835
          -.0010674136
          -.0013085032
          -.0012064106
          -.0012251446
          -.0013084697
          -.0012606191
          -.0010255375
          -.0012458006
          -.0011157357
          -.0012305564
          -.0012742378
          -.0010301841
          -.0009462531
          -.0011871177
          -.0012605981
          -.0010631749
          -.0012810174
          -.0012152443
          -.0011972358
          -.0013129771
          -.0012459224
          -.0010277696
          -.0012146514
          -.0011249495
          -.0011971361
          -.0013155231
          -.0010682240
          -.0009991322
          -.0012042300
          -.0012664659
          -.0010297991
          -.0012223868
          -.0011323937
          -.0012059696
          -.0013142077
          -.0009636483
          -.0010558186
          0.0000000000
          0.0000000000
          0.0000000000
          0.0000000000
          0.0411996618
          0.0172694717
          0.0173840057
          0.0120491125
          0.0450742766
          0.0195885710
          0.0926016644
          0.0261934847
          0.0679123625
          0.0234897286
          0.0862426683
          0.0312415287
          0.1426102370
          0.0399727635
          0.1230551451
          0.0368054956
          0.1275388300
          0.0426558144
          0.1919364184
          0.0535399318
          0.1778307706
          0.0499223024
          0.1682726145
          0.0538740084
          0.2405229360
          0.0668802038
          0.2318869531
          0.0628412738
          0.2083782703
          0.0649469644
          0.2883773744
          0.0801839456
          0.2850113809
          0.0757929832
          0.2484067678
          0.0772341043
          0.3380917311
          0.0971362740
          0.3366822600
          0.0949002877
          0.2966519296
          0.1069748402
          0.4139947891
          0.1388801932
          0.3796009719
          0.0082141841
          -.0003906895
          0.0086923279
          0.0001824878
          0.0073464666
          0.0011093426
          0.0139088323
          -.0018360311
          0.0136125777
          0.0001133701
          0.0113308970
          0.0015189335
          0.0195147488
          -.0028849877
          0.0204741545
          0.0001258824
          0.0152562652
          0.0017661478
          0.0250028372
          -.0039992305
          0.0271959826
          0.0001015633
          0.0191005934
          0.0020145522
          0.0304629002
          -.0050630420
          0.0338066593
          0.0000880063
          0.0230868608
          0.0025100878
          0.0371092111
          -.0053933999
          0.0405721888
          0.0006095567
          0.0303425249
          0.0065616951
          0.0593506284
          -.0015231860
          0.0508022681
          -.0000736566
          -.0007943701
          0.0000138677
          -.0006260695
          -.0002600337
          -.0005527745
          -.0000400427
          -.0010060617
          -.0000628811
          -.0007771556
          -.0002866841
          -.0006671069
          -.0000741868
          -.0012562771
          -.0000869033
          -.0009342185
          -.0003584165
          -.0007817447
          -.0001077975
          -.0015055567
          -.0001372687
          -.0010892192
          -.0004153272
          -.0008766782
          -.0000288205
          -.0017154891
          -.0001528647
          -.0012212029
          -.0002265857
          -.0007988132
          0.0013635485
          -.0020627249
          0.0003209100
          -.0006478835
          -.0005791619
          -.0005234234
          -.0006545483
          -.0006831211
          -.0006117133
          -.0007332974
          -.0006954393
          -.0006824979
          -.0007702708
          -.0007631515
          -.0006728087
          -.0008270944
          -.0007599543
          -.0007831799
          -.0008401208
          -.0008476190
          -.0007217355
          -.0009035811
          -.0008084828