<VTKFile type="UnstructuredGrid" version="0.1" byte_order="LittleEndian">
  <UnstructuredGrid>
    <Piece NumberOfPoints="1152" NumberOfCells="384">
      <PointData Scalars="scalars">
        <DataArray type="Float32" Name="Tracer" Format="ascii">
          0.0216636285
          -.0051653162
          0.0082437051
          -.0015556875
          0.0121833934
          -.0020482226
          0.0497828424
          -.0169129651
          0.0373225808
          -.0035455101
          0.0242839959
          -.0037777587
          0.0771953017
          -.0287839491
          0.0677268431
          -.0055727046
          0.0361444466
          -.0055238404
          0.1043037027
          -.0405692719
          0.0978304297
          -.0075836824
          0.0478602126
          -.0072483523
          0.1310048103
          -.0521965921
          0.1275511831
          -.0095651364
          0.0593890361
          -.0089445533
          0.1571943611
          -.0636200905
          0.1567738205
          -.0115092350
          0.0706859529
          -.0106058195
          0.1827688664
          -.0747959390
          0.1853843033
          -.0133440970
          0.0835202038
          -.0085395109
          0.2289544940
          -.0881480724
          0.2035285085
          -.0003300290
          -.0003298933
          -.0004011156
          -.0002037433
          0.0000561476
          -.0000597237
          -.0006543171
          -.0004009785
          -.0007499184
          -.0003006285
          0.0000451242
          -.0000910798
          -.0009985550
          -.0005537154
          -.0011553380
          -.0004148282
          0.0000195395
          -.0001242414
          -.0013395436
          -.0007066817
          -.0015608000
          -.0005279681
          -.0000065415
          -.0001569599
          -.0016753091
          -.0008569492
          -.0019602883
          -.0006390593
          -.0000326057
          -.0001890658
          -.0020045117
          -.0010038499
          -.0023521241
          -.0007460791
          -.0000062084
          -.0001096162
          -.0015098886
          -.0013361482
          -.0026723503
          -.0000882127
          -.0000766281
          -.0000539909
          -.0000935287
          -.0000641685
          -.0000527267
          -.0001097485
          -.0000865819
          -.0000762547
          -.0001092618
          -.0000754189
          -.0000584259
          -.0001334088
          -.0000989076
          -.0001017546
          -.0001248458
          -.0000881860
          -.0000645252
          -.0001565956
          -.0001111560
          -.0001274955
          -.0001400364
          -.0001006747
          -.0000704064
          -.0001791412
          -.0001229561
          -.0001527618
          -.0001536381
          -.0001104798
          -.0000685363
          -.0001695920
          -.0001227745
          -.0001765759
          -.0001056522
          -.0000910771
          -.0000473173
          -.0001184233
          -.0000895033
          -.0000653943
          -.0001181601
          -.0000991152
          -.0000561759
          -.0001320181
          -.0000990131
          -.0000702889
          -.0001312677
          -.0001084180
          -.0000637743
          -.0001447994
          -.0001097975
          -.0000755932
          -.0001438214
          -.0001175402
          -.0000716697
          -.0001560004
          -.0001182905
          -.0000737576
          -.0001397063
          -.0001102528
          -.0000847942
          -.0001321621
          -.0001113917
          -.0000627051
          -.0001446364
          -.0001120369
          -.0000764995
          -.0001432644
          -.0001177182
          -.0000711828
          -.0001571073
          -.0001203049
          -.0000807335
          -.0001551130
          -.0001260151
          -.0000778436
          -.0001674935
          -.0001281299
          -.0000781178
          -.0001495310
          -.0001172305
          -.0000907775
          -.0001567510
          -.0001300936
          -.0000775292
          -.0001686314
          -.0001327690
          -.0000863789
          -.0001663439
          -.0001345803
          -.0000856787
          -.0001785797
          -.0001375103
          -.0000821788
          -.0001592170
          -.0001239905
          -.0000978430
          -.0001788720
          -.0001468147
          -.0000912480
          -.0001883409
          -.0001491814
          -.0000868649
          -.0001682206
          -.0001306721
          -.0001054181
          -.0001757653
          -.0001387959
          -.0001151509
          0.2021152228
          -.0850959867
          0.2296723574
          -.0183286890
          0.0824519470
          -.0082414690
          0.1816207618
          -.0742016882
          0.1852719188
          -.0152514856
          0.0730859414
          -.0063795764
          0.1536707878
          -.0628842488
          0.1596938968
          -.0127692949
          0.0614996701
          -.0052998234
          0.1249249652
          -.0517280623
          0.1330433190
          -.0103509258
          0.0495659150
          -.0042181136
          0.0956872702
          -.0403860360
          0.1058506817
          -.0078963246
          0.0374354459
          -.0031202540
          0.0660758615
          -.0288867205
          0.0782440528
          -.0054109935
          0.0251587294
          -.0020102144
          0.0362064391
          -.0172746144
          0.0503318831
          -.0029009753
          0.0128371464
          -.0007823858
          0.0080313887
          -.0055161505
          0.0218371991
          -.0023734279
          -.0008233023
          -.0023749680
          -.0009329605
          -.0003930459
          -.0002263506
          -.0018910129
          -.0007367004
          -.0025157849
          -.0007853415
          -.0003203750
          -.0001797528
          -.0015853320
          -.0006047128
          -.0021007117
          -.0006555697
          -.0002800957
          -.0001523689
          -.0012907092
          -.0004832828
          -.0017005738
          -.0005285677
          -.0002446275
          -.0001255029
          -.0009916612
          -.0003609622
          -.0012956385
          -.0003998136
          -.0002084846
          -.0000981798
          -.0006887559
          -.0002372717
          -.0008857182
          -.0002688046
          -.0001697854
          -.0000657602
          -.0002149312
          -.0000427440
          -.0004733499
          -.0002171150
          -.0001227550
          -.0001940553
          -.0001716157
          -.0001244614
          -.0000736657
          -.0001870359
          -.0001146345
          -.0001833777
          -.0001574668
          -.0001089831
          -.0000661171
          -.0001626130
          -.0001027389
          -.0001561337
          -.0001414552
          -.0000957276
          -.0000593470
          -.0001381488
          -.0000910597
          -.0001297442
          -.0001251980
          -.0000823417
          -.0000524258
          -.0001131807
          -.0000790741
          -.0001029508
          -.0001075198
          -.0000675832
          -.0000414510
          -.0000775115
          -.0000574411
          -.0000780464
          -.0001554725
          -.0001275411
          -.0000876890
          -.0001697646
          -.0001168444
          -.0000755584
          -.0001402292
          -.0001162595
          -.0000815754
          -.0001579961
          -.0001039799
          -.0000689609
          -.0001267796
          -.0001067740
          -.0000733304
          -.0001449223
          -.0000934268
          -.0000629038
          -.0001127735
          -.0000972334
          -.0000655665
          -.0001302636
          -.0000810997
          -.0000515867
          -.0000899024
          -.0000772995
          -.0000609005
          -.0001661997
          -.0001357801
          -.0000919433
          -.0001810504
          -.0001262800
          -.0000810161
          -.0001515898
          -.0001247582
          -.0000862914
          -.0001700128
          -.0001137010
          -.0000746698
          -.0001389341
          -.0001157410
          -.0000786860
          -.0001561980
          -.0001017621
          -.0000627064
          -.0001150860
          -.0000940638
          -.0000757152
          -.0001778509
          -.0001435870
          -.0000979311
          -.0001918849
          -.0001355681
          -.0000861845
          -.0001637089
          -.0001329122
          -.0000927468
          -.0001800190
          -.0001211261
          -.0000729349
          -.0001390463
          -.0001093724
          -.0000903313
          -.0001888570
          -.0001508785
          -.0001036398
          -.0001998561
          -.0001418774
          -.0000829572
          -.0001607124
          -.0001233693
          -.0001044432
          -.0001805954
          -.0001371074
          -.0001196798
          -.0002373534
          -.0001763016
          -.0000881618
          -.0002496448
          -.0001643456
          -.0000871790
          -.0002330786
          -.0001668857
          -.0000856913
          -.0002489580
          -.0001621041
          -.0000865431
          -.0002330446
          -.0001666703
          -.0000853452
          -.0002489184
          -.0001620786
          -.0000865346
          -.0002330424
          -.0001666678
          -.0000853407
          -.0002489179
          -.0001620754
          -.0000865333
          -.0002329176
          -.0001666810
          -.0000853002
          -.0002489112
          -.0001617838
          -.0000864006
          -.0002249110
          -.0001680574
          -.0000835975
          -.0002485656
          -.0001321988
          -.0000726310
          0.0028041820
          0.0021517079
          -.0001579336
          -.0030751983
          0.0019732295
          0.0616813973
          0.3076416254
          0.2609182000
          -.1131273508
          -.0002482256
          -.0001800536
          -.0001059065
          -.0002610876
          -.0001767243
          -.0000904199
          -.0002448357
          -.0001709136
          -.0001009073
          -.0002605194
          -.0001745156
          -.0000898528
          -.0002448471
          -.0001707215
          -.0001005750
          -.0002604850
          -.0001744970
          -.0000898456
          -.0002448471
          -.0001707197
          -.0001005719
          -.0002604847
          -.0001744968
          -.0000898455
          -.0002448350
          -.0001707197
          -.0001005656
          -.0002604839
          -.0001744918
          -.0000898439
          0.0026469291
          0.0024164838
          -.0000999358
          -.0032778801
          -.0004691640
          0.0636200383
          0.2907821536
          0.2875579000
          -.1271947622
          -.0002600146
          -.0001862888
          -.0001117566
          -.0002706225
          -.0001856557
          -.0000927656
          -.0002565218
          -.0001766664
          -.0001065651
          -.0002700053
          -.0001833652
          -.0000921906
          -.0002565351
          -.0001764685
          -.0001062212
          -.0002699698
          -.0001833463
          -.0000921833
          -.0002565352
          -.0001764666
          -.0001062182
          -.0002699695
          -.0001833461
          -.0000921833
          0.0027389964
          0.0024949650
          -.0001062180
          -.0034334660
          -.0004665824
          0.0657978803
          0.3045639694
          0.2982631326
          -.1326448321
          -.0002678711
          -.0001896266
          -.0001160639
          -.0002759499
          -.0001917086
          -.0000936698
          -.0002643148
          -.0001796696
          -.0001107599
          -.0002752919
          -.0001893703
          -.0000930956
          -.0002643293
          -.0001794687
          -.0001104093
          -.0002752558
          -.0001893512
          -.0000930883
          0.0027894655
          0.0025344973
          -.0001104062
          -.0035354141
          -.0004562195
          0.0669491366
          0.3137008548
          0.3043130934
          -.1359715313
          -.0002715496
          -.0001900004
          -.0001185608
          -.0002769418
          -.0001947700
          -.0000930985
          -.0002679843
          -.0001798674
          -.0001132271
          -.0002762821
          -.0001924203
          -.0000925476
          0.0027964052
          0.0025344787
          -.0001128759
          -.0035821833
          -.0004387423
          0.0670556575
          0.3179425597
          0.3056144118
          -.1371764541
          -.0002711933
          -.0001867082
          -.0001192172
          -.0002670411
          -.0001947761
          -.0000879778
          0.0027597230
          0.0024951031
          -.0001137357
          -.0035729250
          -.0004144050
          0.0661158636
          0.3172228336
          0.3021467328
          -.1362407357
          0.0026305341
          0.0024688900
          -.0001601589
          -.0025436962
          -.0003889808
          0.0646226034
          0.3115526736
          0.2940221429
          -.1331503093
          0.2938107550
          0.3089662492
          -.1229705811
          -.1131743714
          0.2603367269
          0.3092573285
          0.0645147264
          -.0064992700
          -.0063795391
          -.0008708484
          -.0016939209
          -.0002439935
          -.0002421675
          -.0004033999
          -.0000981128
          -.0002228138
          -.0001907523
          -.0001052960
          -.0002442214
          -.0001669733
          -.0000864896
          -.0002198530
          -.0001729155
          -.0000804322
          -.0002427378
          -.0001652729
          -.0000860120
          -.0002198748
          -.0001727230
          -.0000803457
          -.0002427233
          -.0001652630
          -.0000860097
          -.0002198754
          -.0001727219
          -.0000803464
          -.0002427233
          -.0001652630
          -.0000860096
          -.0002198662
          -.0001727132
          -.0000803465
          -.0002422641
          -.0001644525
          -.0000831235
          -.0002015348
          -.0001577967
          -.0000846291
          -.1272189021
          0.2860884368
          0.2925754189
          0.0687362924
          -.0078250114
          -.0060337642
          -.0008693110
          -.0015321949
          -.0010088662
          -.0002320681
          -.0004207313
          -.0000840422
          -.0002409152
          -.0001874313
          -.0001346278
          -.0002554219
          -.0001815605
          -.0000894273
          -.0002381919
          -.0001737320
          -.0001014810
          -.0002543198
          -.0001800379
          -.0000891445
          -.0002381720
          -.0001735950
          -.0001012548
          -.0002543080
          -.0001800255
          -.0000891440
          -.0002381620
          -.0001735849
          -.0001012531
          -.0002538338
          -.0001792511
          -.0000862706
          -.0002218667
          -.0001576518
          -.0001061427
          -.1325320899
          0.2967741787
          0.3066159785
          0.0710746944
          -.0081417449
          -.0062700459
          -.0008963317
          -.0015954999
          -.0010510974
          -.0002456573
          -.0004374862
          -.0000864285
          -.0002521721
          -.0001937627
          -.0001415571
          -.0002648343
          -.0001906802
          -.0000916484
          -.0002494983
          -.0001795621
          -.0001073110
          -.0002636582
          -.0001891226
          -.0000913554
          -.0002494689
          -.0001794121
          -.0001070788
          -.0002631636
          -.0001883086
          -.0000883981
          -.0002325641
          -.0001628702
          -.0001121459
          -.1358661801
          0.3027901947
          0.3158015013
          0.0722939894
          -.0083423043
          -.0064104805
          -.0009122209
          -.0016361529
          -.0010804897
          -.0002558421
          -.0004478295
          -.0000875512
          -.0002596330
          -.0001971563
          -.0001465326
          -.0002701364
          -.0001968374
          -.0000924447
          -.0002569937
          -.0001826093
          -.0001116324
          -.0002684128
          -.0001944444
          -.0000891498
          -.0002397148
          -.0001655815
          -.0001165625
          -.1370807290
          0.3040812612
          0.3200580478
          0.0723851323
          -.0084127532
          -.0064508924
          -.0009139013
          -.0016512854
          -.0010930682
          -.0002620374
          -.0004511881
          -.0000873080
          -.0002630333
          -.0001974642
          -.0001492241
          -.0002707505
          -.0001991045
          -.0000888199
          -.0002431435
          -.0001658522
          -.0001193960
          -.1361561567
          0.3006272018
          0.3193202019
          0.0713467300
          -.0083519276
          -.0063906340
          -.0009013106
          -.0016406402
          -.0010885902
          -.0002643836
          -.0004467078
          -.0000844414
          -.0002451827
          -.0001782046
          -.0001547642
          -.1331070065
          0.2924818993
          0.3135995865
          0.0697232857
          -.0081619965
          -.0051899008
          -.0008461813
          -.0014511684
          -.0009867828
          -.1231458038
          0.3086979985
          0.2949965596
          0.3542197943
          -.1615714729
          0.4432725608
          -.0281381980
          0.1530416161
          -.0228100959
          0.3435925841
          -.1518755406
          0.3894753456
          -.0256369337
          0.1472077668
          -.0216106344
          0.3255276382
          -.1440128535
          0.3707310259
          -.0242498424
          0.1392559856
          -.0204079915
          0.3061097264
          -.1358113289
          0.3501242697
          -.0228161383
          0.1307180524
          -.0191406775
          0.2854932547
          -.1270894855
          0.3281381726
          -.0212954562
          0.1216678321
          -.0177989732
          0.2637618482
          -.1178716719
          0.3048702478
          -.0196916759
          0.1121424511
          -.0163877718
          0.2409988642
          -.1081946790
          0.2804117203
          -.0179582909
          0.1036815196
          -.0119082564
          0.2387405932
          -.0976720825
          0.2467072308
          -.0046825581
          -.0018164300
          -.0051307650
          -.0014752300
          -.0004096973
          -.0004481344
          -.0043434729
          -.0019220678
          -.0051616612
          -.0014334384
          -.0003951696
          -.0004256152
          -.0041078748
          -.0018111559
          -.0048801471
          -.0013536027
          -.0003821356
          -.0004025706
          -.0038632727
          -.0016966304
          -.0045892945
          -.0012698513
          -.0003693661
          -.0003786848
          -.0036039373
          -.0015760129
          -.0042813541
          -.0011812763
          -.0003552873
          -.0003533494
          -.0033305229
          -.0014492493
          -.0039567393
          -.0010866479
          -.0002989330
          -.0002398074
          -.0023901744
          -.0014579790
          -.0035591440
          -.0003289569
          -.0001954622
          -.0003306318
          -.0002294021
          -.0001850490
          -.0000936672
          -.0003119125
          -.0001767443
          -.0003353595
          -.0002201374
          -.0001732858
          -.0000892249
          -.0002952507
          -.0001674572
          -.0003168073
          -.0002089365
          -.0001640863
          -.0000843341
          -.0002776189
          -.0001578679
          -.0002980951
          -.0001970588
          -.0001543534
          -.0000791811
          -.0002588875
          -.0001476650
          -.0002782762
          -.0001833817
          -.0001418905
          -.0000665543
          -.0002153096
          -.0001275853
          -.0002578260
          -.0002038721
          -.0001702723
          -.0001066221
          -.0002068685
          -.0001681167
          -.0000898290
          -.0001900801
          -.0001493413
          -.0001169413
          -.0001977733
          -.0001557910
          -.0000855036
          -.0001801492
          -.0001417589
          -.0001102289
          -.0001878590
          -.0001473021
          -.0000807605
          -.0001694531
          -.0001339738
          -.0001042376
          -.0001762341
          -.0001364264
          -.0000689130
          -.0001431676
          -.0001110172
          -.0001033427
          -.0002017832
          -.0001698232
          -.0001028877
          -.0002065185
          -.0001679150
          -.0000898672
          -.0001880050
          -.0001488712
          -.0001132425
          -.0001974231
          -.0001555675
          -.0000855368
          -.0001781456
          -.0001412831
          -.0001067270
          -.0001863619
          -.0001450747
          -.0000735220
          -.0001517349
          -.0001177909
          -.0001068421
          -.0002017640
          -.0001698176
          -.0001028373
          -.0002065150
          -.0001679142
          -.0000898681
          -.0001879446
          -.0001488288
          -.0001131922
          -.0001961950
          -.0001534369
          -.0000778639
          -.0001612694
          -.0001245148
          -.0001129185
          -.0002017217
          -.0001697776
          -.0001028368
          -.0002053331
          -.0001656760
          -.0000820444
          -.0001701343
          -.0001311749
          -.0001197720
          -.0001786800
          -.0001423378
          -.0001090737
          0.2454808950
          -.0932491645
          0.2402280420
          -.0213718899
          0.1044076160
          -.0104794512
          0.2760420144
          -.1053149998
          0.2453669906
          -.0233942531
          0.1160158440
          -.0107178567
          0.3002473414
          -.1144870371
          0.2688426673
          -.0253164973
          0.1259668618
          -.0115801971
          0.3231131434
          -.1235057339
          0.2909740508
          -.0272242855
          0.1353408098
          -.0124138100
          0.3447138071
          -.1320553720
          0.3119510412
          -.0290291682
          0.1441836208
          -.0131992167
          0.3649681509
          -.1400896311
          0.3317094147
          -.0307207964
          0.1524633467
          -.0139330812
          0.3838072717
          -.1475698948
          0.3501724601
          -.0323088318
          0.1599257141
          -.0140487850
          0.4381463528
          -.1649338752
          0.3568411767
          -.0026752164
          -.0009486856
          -.0028652619
          -.0011522770
          -.0002605605
          -.0002691862
          -.0028607440
          -.0012256703
          -.0038676320
          -.0012841887
          -.0003064547
          -.0002794857
          -.0030923164
          -.0013170918
          -.0041886130
          -.0013837216
          -.0003354372
          -.0003001944
          -.0033247927
          -.0014082668
          -.0045018196
          -.0014807459
          -.0003669414
          -.0003206326
          -.0035447916
          -.0014946517
          -.0047987383
          -.0015722174
          -.0003972297
          -.0003398466
          -.0037510362
          -.0015753329
          -.0050769839
          -.0016566230
          -.0004433559
          -.0003864459
          -.0042684427
          -.0018410861
          -.0052930303
          -.0002520074
          -.0001286360
          -.0002264502
          -.0001827250
          -.0001441777
          -.0000859587
          -.0002711324
          -.0001441751
          -.0002701372
          -.0001992011
          -.0001539847
          -.0000905577
          -.0002902701
          -.0001531785
          -.0002909548
          -.0002120539
          -.0001643050
          -.0000956040
          -.0003086073
          -.0001619376
          -.0003114207
          -.0002242800
          -.0001741320
          -.0001003459
          -.0003259440
          -.0001702688
          -.0003307412
          -.0002346555
          -.0001809913
          -.0001004896
          -.0003543065
          -.0001576667
          -.0003539891
          -.0001748948
          -.0001268136
          -.0000871021
          -.0001751777
          -.0001363762
          -.0000872232
          -.0001835631
          -.0001333474
          -.0000959833
          -.0001874367
          -.0001421750
          -.0000911117
          -.0001942565
          -.0001405979
          -.0001016355
          -.0001978378
          -.0001501337
          -.0000954307
          -.0002043120
          -.0001478294
          -.0001076316
          -.0002066323
          -.0001550837
          -.0000949120
          -.0002124338
          -.0001309176
          -.0001158351
          -.0001842444
          -.0001349212
          -.0000906496
          -.0001860485
          -.0001447911
          -.0000920048
          -.0001917152
          -.0001405912
          -.0000984757
          -.0001975230
          -.0001497645
          -.0000954895
          -.0002016676
          -.0001474154
          -.0001034017
          -.0002061221
          -.0001546124
          -.0000949123
          -.0002094296
          -.0001304166
          -.0001112940
          -.0001947998
          -.0001427678
          -.0000967080
          -.0001965580
          -.0001529472
          -.0000964178
          -.0002015509
          -.0001478308
          -.0001041929
          -.0002062936
          -.0001546752
          -.0000949714
          -.0002093877
          -.0001304276
          -.0001112423
          -.0002048240
          -.0001502698
          -.0001025028
          -.0002047184
          -.0001580373
          -.0000955871
          -.0002093120
          -.0001308326
          -.0001121140
          -.0002165125
          -.0001368435
          -.0001160357
          0.0000000000
          0.0000000000
          0.0000000000
          0.0000000000
          0.0000000000
          0.0000000000
          0.0000000000
          0.0000000000
          0.0000000000
          0.0000000000
          0.0000000000
          0.0000000000
          0.0000000000
          0.0000000000
          0.0000000000
          0.0000000000
          0.0000000000
          0.0000000000
          0.0000000000
          0.0000000000
          0.0000000000
          0.0000000000
          0.0000000000
          0.0000000000
          0.0000000000
          0.0000000000
          0.0000000000
          0.0000000000
          0.0000000000
          0.0000000000
          0.0000000000
          0.0000000000
          0.0000000000
          0.0000000000
          0.0000000000
          0.0000000000
          0.0000000000
          0.0000000000
          0.0000000000
          0.0000000000
          0.0000000000
          0.0000000000
          0.0000000000
          0.0000000000
          0.0000000000
          0.0000000000
          0.0000000000
          0.0000000000
          0.0000000000
          0.0000000000
          0.0000000000
          0.0000000000
          0.0000000000
          0.0000000000
          0.0000000000
          0.0000000000
          0.0000000000
          0.0000000000
          0.0000000000
          0.0000000000
          0.0000000000
          0.0000000000
          0.0000000000
          0.0000000000
          0.0000000000
          0.0000000000
          0.0000000000
          0.0000000000
          0.0000000000
          0.0000000000
          0.0000000000
          0.0000000000
          0.0000000000
          0.0000000000
          0.0000000000
          0.0000000000
          0.0000000000
          0.0000000000
          0.0000000000
          0.0000000000
          0.0000000000
          0.0000000000
          0.0000000000
          0.0000000000
          0.0000000000
          0.0000000000
          0.0000000000
          0.0000000000
          0.0000000000
          0.0000000000
          0.0000000000
          0.0000000000
          0.0000000000
          0.0000000000
          0.0000000000
          0.0000000000
          0.0000000000
          0.0000000000
          0.0000000000
          0.0000000000
          0.0000000000
          0.0000000000
          0.0000000000
          0.0000000000
          0.0000000000
          0.0000000000
          0.0000000000
          0.0000000000
          0.0000000000
          0.0000000000
          0.0000000000
          0.0000000000
          0.0000000000
          0.0000000000
          0.0000000000
          0.0000000000
          0.0000000000
          0.0000000000
          0.0000000000
          0.0000000000
          0.0000000000
          0.0000000000
          0.0000000000
          0.0000000000
          0.0000000000
          0.0000000000
          0.0000000000
          0.0000000000
          0.0000000000
          0.0000000000
          0.0000000000
          0.0000000000
          0.0000000000
          0.0000000000
          0.0000000000
          0.0000000000
          0.0000000000
          0.0000000000
          0.0000000000
          0.0000000000
          0.0000000000