<VTKFile type="UnstructuredGrid" version="0.1" byte_order="LittleEndian">
  <UnstructuredGrid>
    <Piece NumberOfPoints="1152" NumberOfCells="384">
      <PointData Scalars="scalars">
        <DataArray type="Float32" Name="Tracer" Format="ascii">
          0.0398459770
          0.0146151800
          0.0170016959
          0.0095643448
          0.0422859341
          0.0163122769
          0.0901686177
          0.0211529508
          0.0664926991
          0.0190117545
          0.0813761204
          0.0259442851
          0.1390095800
          0.0320410728
          0.1205332726
          0.0299875438
          0.1204373986
          0.0352430493
          0.1872059405
          0.0426851362
          0.1741458476
          0.0407753289
          0.1589677781
          0.0443832725
          0.2346778661
          0.0531469136
          0.2270568311
          0.0513996370
          0.1968938112
          0.0533874258
          0.2813712656
          0.0635424852
          0.2790607214
          0.0619873852
          0.2346043885
          0.0632942691
          0.3295401335
          0.0769332424
          0.3295806348
          0.0776505992
          0.2801774740
          0.0900658518
          0.4066055119
          0.1156322211
          0.3695366979
          0.0062104664
          -.0011837932
          0.0065505793
          -.0003408010
          0.0053275996
          0.0004003623
          0.0106433136
          -.0026429847
          0.0104100630
          -.0005970793
          0.0082795955
          0.0004939054
          0.0148915118
          -.0040035048
          0.0157000907
          -.0008802279
          0.0111094322
          0.0004673870
          0.0190525781
          -.0054125274
          0.0208506808
          -.0011879248
          0.0138786128
          0.0004436318
          0.0231770836
          -.0067824447
          0.0259146094
          -.0014895379
          0.0167217720
          0.0005690467
          0.0281076860
          -.0076675396
          0.0310581513
          -.0015037856
          0.0219871849
          0.0032760303
          0.0462274961
          -.0060362942
          0.0388658643
          -.0002769826
          -.0006516605
          -.0002412974
          -.0005376250
          -.0003676564
          -.0004776015
          -.0003441535
          -.0008008396
          -.0003692062
          -.0006612531
          -.0004453904
          -.0005738989
          -.0004686702
          -.0009867528
          -.0005082905
          -.0007899675
          -.0005594880
          -.0006683157
          -.0005920362
          -.0011718783
          -.0006660454
          -.0009168597
          -.0006650891
          -.0007511735
          -.0006509153
          -.0013340941
          -.0008034213
          -.0010283727
          -.0006310871
          -.0007425789
          0.0000655600
          -.0016634727
          -.0006158943
          -.0005583473
          -.0004917918
          -.0004405138
          -.0005649939
          -.0005814714
          -.0005166042
          -.0006279164
          -.0005867643
          -.0005713124
          -.0006601405
          -.0006467835
          -.0005655643
          -.0007063054
          -.0006393115
          -.0006524654
          -.0007196367
          -.0007176393
          -.0006074145
          -.0007719183
          -.0006803387
          -.0007343416
          -.0007563832
          -.0007637411
          -.0005970875
          -.0007942469
          -.0006654133
          -.0007985297
          -.0006605102
          -.0005962286
          -.0005081795
          -.0006827466
          -.0006938130
          -.0006112919
          -.0007038616
          -.0006965568
          -.0006447956
          -.0007757168
          -.0007387405
          -.0006460017
          -.0007448501
          -.0007303021
          -.0006950538
          -.0008030703
          -.0007646023
          -.0006193619
          -.0007191360
          -.0006873462
          -.0007375436
          -.0007799579
          -.0006984046
          -.0006118824
          -.0007932665
          -.0008123664
          -.0006943329
          -.0007989167
          -.0007855807
          -.0007559333
          -.0008587313
          -.0008181942
          -.0006566281
          -.0007586581
          -.0007303546
          -.0007865337
          -.0008742411
          -.0007774267
          -.0007100889
          -.0008617073
          -.0008873040
          -.0006934400
          -.0008028663
          -.0007703730
          -.0008445443
          -.0008474455
          -.0007120942
          -.0008037918
          0.3574254513
          0.1143424213
          0.3999810517
          0.0879384577
          0.2732025385
          0.0717727169
          0.3151150942
          0.0780014694
          0.3356327415
          0.0696871579
          0.2350550741
          0.0637394190
          0.2673429251
          0.0678473189
          0.2888313532
          0.0603471957
          0.1980273128
          0.0529134944
          0.2169311941
          0.0560881384
          0.2408719361
          0.0498635136
          0.1592441350
          0.0415034406
          0.1656965464
          0.0437671840
          0.1916441768
          0.0390392281
          0.1198027804
          0.0299261771
          0.1138337776
          0.0312786289
          0.1416544020
          0.0280686356
          0.0799579993
          0.0183465630
          0.0619667545
          0.0191015415
          0.0910886899
          0.0174015313
          0.0411650799
          0.0090111243
          0.0172798652
          0.0140465973
          0.0403675474
          0.0352142751
          -.0058662822
          0.0450786054
          -.0017530434
          0.0205070823
          0.0000172919
          0.0300186723
          -.0072616022
          0.0319519937
          -.0021747951
          0.0172898676
          0.0003841196
          0.0252956003
          -.0059860549
          0.0273062754
          -.0017272292
          0.0143364519
          0.0002160738
          0.0200803131
          -.0048570745
          0.0222976319
          -.0014000300
          0.0111372536
          0.0000221240
          0.0147746382
          -.0037409901
          0.0171036217
          -.0010828760
          0.0078975623
          -.0001541808
          0.0095360251
          -.0025506960
          0.0118565457
          -.0007621273
          0.0049606329
          0.0000039367
          0.0069548558
          -.0004679803
          0.0070822886
          -.0010012494
          -.0016432963
          -.0007905088
          -.0012911296
          -.0009934334
          -.0008688093
          -.0008284831
          -.0014395542
          -.0011005902
          -.0011605942
          -.0008361541
          -.0007576534
          -.0007299430
          -.0012323298
          -.0009233690
          -.0010110438
          -.0007325254
          -.0006593102
          -.0006530809
          -.0010299000
          -.0007943895
          -.0008643702
          -.0006359334
          -.0005556314
          -.0005623960
          -.0008171263
          -.0006674757
          -.0007026566
          -.0005084393
          -.0004112609
          -.0003001766
          -.0005712776
          -.0005083738
          -.0009255889
          -.0006889255
          -.0008081034
          -.0008017524
          -.0008197101
          -.0006368256
          -.0008057059
          -.0007079431
          -.0008133211
          -.0007924781
          -.0007229923
          -.0005827818
          -.0007143953
          -.0006444239
          -.0007200068
          -.0007206774
          -.0006422499
          -.0005227231
          -.0006151037
          -.0005735040
          -.0006315692
          -.0006313277
          -.0005428416
          -.0004245407
          -.0004930919
          -.0004619365
          -.0005363962
          -.0008398293
          -.0007268100
          -.0006597450
          -.0008391450
          -.0007976185
          -.0006715095
          -.0007480753
          -.0007605716
          -.0007221652
          -.0008393925
          -.0007156484
          -.0006151401
          -.0006697347
          -.0006892532
          -.0006557159
          -.0007504542
          -.0006258343
          -.0005114676
          -.0005619391
          -.0005654082
          -.0005869823
          -.0008919613
          -.0007723708
          -.0006960036
          -.0008888771
          -.0008484262
          -.0007089496
          -.0007892190
          -.0008005688
          -.0007687673
          -.0008689880
          -.0007402921
          -.0005974885
          -.0006739867
          -.0006638618
          -.0006960111
          -.0009302030
          -.0008019255
          -.0007378630
          -.0009021499
          -.0008643142
          -.0006732235
          -.0007786365
          -.0007504520
          -.0008044714
          -.0008849656
          -.0007075160
          -.0007867528
          -.0010722177
          -.0009836802
          -.0007383188
          -.0011457507
          -.0009983785
          -.0008239350
          -.0010099291
          -.0010109037
          -.0008346269
          -.0011589506
          -.0009734812
          -.0008108880
          -.0010074655
          -.0010040362
          -.0008259363
          -.0011557327
          -.0009722074
          -.0008103096
          -.0010094352
          -.0010034530
          -.0008258377
          -.0011536767
          -.0009751163
          -.0008059136
          -.0010060646
          -.0009546897
          -.0008498744
          -.0009753968
          -.0007896936
          -.0002074935
          0.0018270146
          0.0016760831
          -.0010364356
          0.0066258321
          0.0095177088
          0.0213312544
          0.0785943493
          0.0625859052
          0.0127376225
          0.1257939488
          0.1601274014
          0.3334373832
          0.6835535169
          0.5819458961
          0.2067481279
          -.0011790233
          -.0009996565
          -.0009016900
          -.0011925637
          -.0010859637
          -.0008604056
          -.0011128543
          -.0010286494
          -.0009633676
          -.0012062904
          -.0010597447
          -.0008488593
          -.0011113867
          -.0010219398
          -.0009551968
          -.0012012299
          -.0010559341
          -.0008397556
          -.0010578452
          -.0009714570
          -.0009570736
          -.0010128152
          -.0008157440
          -.0002042329
          0.0017891971
          0.0016866152
          -.0008739005
          0.0067810062
          0.0085824728
          0.0208677948
          0.0675688684
          0.0633352473
          0.0101706432
          0.1257600337
          0.1425485611
          0.3315365016
          0.6295002699
          0.6145628691
          0.1367478222
          -.0012314920
          -.0010385810
          -.0009437003
          -.0012367601
          -.0011341487
          -.0008905392
          -.0011625820
          -.0010668094
          -.0010068233
          -.0012481970
          -.0011039886
          -.0008700018
          -.0011061432
          -.0010091928
          -.0010002959
          -.0010550498
          -.0008555532
          -.0002211328
          0.0018232409
          0.0017132341
          -.0009117637
          0.0068843751
          0.0088416105
          0.0214052405
          0.0696732253
          0.0653621405
          0.0103928866
          0.1292513311
          0.1476381123
          0.3426675797
          0.6554339528
          0.6384499073
          0.1395429075
          -.0012672759
          -.0010620481
          -.0009744002
          -.0012606960
          -.0011630802
          -.0008990247
          -.0011413476
          -.0010385406
          -.0010398794
          -.0010844002
          -.0008848996
          -.0002357381
          0.0018256295
          0.0017151389
          -.0009419662
          0.0068763699
          0.0089848880
          0.0216267593
          0.0709965229
          0.0664117336
          0.0105645526
          0.1306937933
          0.1510354578
          0.3487254083
          0.6747367382
          0.6517381072
          0.1430394202
          -.0012288586
          -.0010252370
          -.0009949191
          -.0010892951
          -.0009272356
          -.0002599572
          0.0017993934
          0.0016845183
          -.0009663226
          0.0067672646
          0.0089857597
          0.0215172898
          0.0712150484
          0.0664262474
          0.0105721522
          0.1300993264
          0.1520811915
          0.3493440747
          0.6835522652
          0.6548410654
          0.1443236470
          0.0017002617
          0.0016801294
          -.0010051047
          0.0070780767
          0.0088674482
          0.0216084793
          0.0703493208
          0.0655625463
          0.0104705291
          0.1278349012
          0.1507282257
          0.3446697593
          0.6816897392
          0.6477556229
          0.1433688402
          0.0697850734
          0.0718127787
          0.0115359528
          0.1400838196
          0.1498152465
          0.3472578526
          0.6686316133
          0.6336004734
          0.1424749941
          0.6538680792
          0.7007927299
          0.2173732221
          0.2022083551
          0.5743674040
          0.7033627033
          0.3396673799
          0.1465028673
          0.0890250504
          -.0049112318
          0.0399421416
          0.0694772452
          0.0165254995
          0.0011151005
          0.0002334898
          -.0017957278
          -.0007537377
          -.0002928332
          -.0010752375
          -.0011902959
          -.0008663058
          -.0009880479
          -.0010324212
          -.0009497725
          -.0011291523
          -.0009884377
          -.0008183417
          -.0009656653
          -.0010051923
          -.0008511787
          -.0011174834
          -.0009808916
          -.0008185538
          -.0009652743
          -.0010047075
          -.0008475739
          -.0011167347
          -.0009797323
          -.0008164831
          -.0009564158
          -.0009984612
          -.0008452965
          -.0011015616
          -.0009561118
          -.0007736890
          -.0008455329
          -.0009181802
          -.0008133995
          0.1259366274
          0.6030164957
          0.6418558955
          0.3436353505
          0.1283802092
          0.0945510790
          -.0106063820
          0.0404044390
          0.0528593585
          0.0162711963
          -.0001196326
          0.0008646994
          -.0016311505
          -.0006701485
          -.0005572396
          -.0010737246
          -.0012028135
          -.0009038513
          -.0010728359
          -.0010387641
          -.0010107349
          -.0011755546
          -.0010772025
          -.0008582583
          -.0010712491
          -.0010139454
          -.0009747701
          -.0011661303
          -.0010740255
          -.0008549824
          -.0010655231
          -.0010077296
          -.0009735684
          -.0011512294
          -.0010558633
          -.0008164838
          -.0009916256
          -.0009295467
          -.0009600145
          0.1304351389
          0.6267482638
          0.6697925925
          0.3554803133
          0.1333553791
          0.0968789980
          -.0109572485
          0.0416263379
          0.0546358898
          0.0166449584
          -.0001365282
          0.0008183905
          -.0016897656
          -.0007168330
          -.0005895334
          -.0011209341
          -.0012546426
          -.0009357324
          -.0011213560
          -.0010774030
          -.0010566558
          -.0012181684
          -.0011246857
          -.0008862330
          -.0011139885
          -.0010458771
          -.0010195290
          -.0011940588
          -.0011036257
          -.0008455113
          -.0010392225
          -.0009649033
          -.0010054297
          0.1335884035
          0.6397508979
          0.6893976927
          0.3615908027
          0.1362965554
          0.0975916386
          -.0111941881
          0.0421108902
          0.0556454733
          0.0167326704
          -.0001744537
          0.0007570924
          -.0017278189
          -.0007539846
          -.0006298367
          -.0011509157
          -.0012880956
          -.0009508571
          -.0011481571
          -.0010942556
          -.0010887645
          -.0012273102
          -.0011374591
          -.0008626487
          -.0010715682
          -.0009871043
          -.0010376916
          0.1346218586
          0.6427735686
          0.6982066035
          0.3620568812
          0.1371023953
          0.0967844203
          -.0112575088
          0.0419405587
          0.0557804480
          0.0165724866
          -.0002105443
          0.0007018048
          -.0017305805
          -.0007661853
          -.0006591217
          -.0011100012
          -.0012869615
          -.0008759786
          -.0010857387
          -.0010064339
          -.0010885261
          0.1335757673
          0.6357929111
          0.6961172819
          0.3570544720
          0.1357821226
          0.0947698653
          -.0110069420
          0.0413829647
          0.0550727174
          0.0174645577
          -.0002559687
          0.0021268243
          -.0013954607
          -.0000084856
          -.0005288984
          0.1327064037
          0.6213969588
          0.6830210090
          0.3587560356
          0.1353328824
          0.1102152988
          -.0015327819
          0.0555639118
          0.0572371595
          0.2138905376
          0.7010448575
          0.6563253403
          0.6467608213
          0.2066400349
          0.7905424833
          0.1679838151
          0.5221953392
          0.1169231609
          0.6081813574
          0.1348307878
          0.6978484392
          0.1369712204
          0.4828028381
          0.1111858115
          0.5778750777
          0.1262945086
          0.6597482562
          0.1296207905
          0.4570866525
          0.1049371883
          0.5432695150
          0.1188706011
          0.6232965589
          0.1220349669
          0.4289694428
          0.0979012251
          0.5065239072
          0.1107058525
          0.5841698050
          0.1138719916
          0.3991417587
          0.0905139819
          0.4679254293
          0.1022240072
          0.5427298546
          0.1053937227
          0.3682298958
          0.0837089866
          0.4298252165
          0.0961283743
          0.4989067018
          0.1003872305
          0.3431145251
          0.0894128978
          0.4198087454
          0.1140030026
          0.4496723413
          0.0570198335
          -.0156196607
          0.0867685080
          -.0028581321
          0.0367898680
          -.0014220299
          0.0509434380
          -.0182262510
          0.0649272874
          -.0041947430
          0.0333082192
          -.0008079996
          0.0482492074
          -.0171710439
          0.0610010698
          -.0039268257
          0.0313922539
          -.0008037393
          0.0451139919
          -.0161485635
          0.0573255643
          -.0037078324
          0.0292437673
          -.0008183992
          0.0418226123
          -.0150673483
          0.0533620305
          -.0034807958
          0.0270815305
          -.0007023849
          0.0391078927
          -.0135537703
          0.0493415296
          -.0030125326
          0.0267744940
          0.0013567661
          0.0463892892
          -.0098062772
          0.0475792065
          -.0019831297
          -.0025756222
          -.0015305622
          -.0018293399
          -.0017326768
          -.0013655268
          -.0018140017
          -.0024718968
          -.0022578193
          -.0017733384
          -.0016125500
          -.0012673184
          -.0017171002
          -.0023173629
          -.0021209216
          -.0016702204
          -.0015264889
          -.0011945447
          -.0016301105
          -.0021712291
          -.0020099152
          -.0015693648
          -.0014364115
          -.0011089921
          -.0014813748
          -.0019984171
          -.0018809880
          -.0014447147
          -.0012165172
          -.0009172831
          -.0007217104
          -.0018995262
          -.0015053084
          -.0012622800
          -.0008973365
          -.0012007691
          -.0010025877
          -.0011607611
          -.0008095514
          -.0011503168
          -.0008816092
          -.0012375485
          -.0009881291
          -.0010716753
          -.0007606932
          -.0010837228
          -.0008279441
          -.0011591287
          -.0009306722
          -.0010075439
          -.0007109808
          -.0010045418
          -.0007678667
          -.0010897791
          -.0008526996
          -.0009165162
          -.0006045065
          -.0008695967
          -.0006501731
          -.0010051385
          -.0010149630
          -.0009097807
          -.0008909572
          -.0009825325
          -.0010176087
          -.0007902219
          -.0009231154
          -.0008902596
          -.0009410601
          -.0009669057
          -.0009358666
          -.0007366266
          -.0008570045
          -.0008238417
          -.0008791391
          -.0008866109
          -.0008517610
          -.0006255225
          -.0007270372
          -.0006896807
          -.0008195455
          -.0010067715
          -.0009124845
          -.0008822771
          -.0009808774
          -.0010103956
          -.0007829678
          -.0009018640
          -.0008789667
          -.0009314244
          -.0009391618
          -.0008991529
          -.0006627038
          -.0007656579
          -.0007342647
          -.0008611793
          -.0009896155
          -.0008943252
          -.0008807398
          -.0009437153
          -.0009753904
          -.0006955237
          -.0008090126
          -.0007735200
          -.0009189838
          -.0008382276
          -.0007193533
          -.0008455867
          0.4413965344
          0.1245847270
          0.4177280366
          0.0978219360
          0.3487907648
          0.1034957916
          0.4838673174
          0.1136158258
          0.4454404414
          0.0993050635
          0.3779922426
          0.1143131107
          0.5273235440
          0.1241700575
          0.4865743518
          0.1087593585
          0.4107185304
          0.1237537712
          0.5672793388
          0.1342574954
          0.5268651843
          0.1175282151
          0.4411302209
          0.1324189007
          0.6050243378
          0.1435624659
          0.5648592114
          0.1257276237
          0.4697906971
          0.1405729204
          0.6404953599
          0.1523667276
          0.6006296277
          0.1334573179
          0.4969668388
          0.1487674117
          0.6760336757
          0.1630074531
          0.6340182424
          0.1420728117
          0.5271694660
          0.1696502864
          0.7665496469
          0.2008019537
          0.6534966826
          0.0489053577
          -.0067664618
          0.0515061356
          -.0017358139
          0.0306523293
          0.0017741492
          0.0514391661
          -.0106416857
          0.0489955768
          -.0032435423
          0.0322926939
          0.0021501500
          0.0559775531
          -.0115949772
          0.0531311445
          -.0034680013
          0.0349634066
          0.0023056939
          0.0600215755
          -.0124351727
          0.0572760589
          -.0036940435
          0.0373859666
          0.0024264958
          0.0638286844
          -.0132445786
          0.0611329079
          -.0039201784
          0.0397048891
          0.0026010694
          0.0679824874
          -.0137320375
          0.0648180544
          -.0041885255
          0.0434076637
          0.0044496427
          0.0862210691
          -.0095137283
          0.0701961294
          -.0006657162
          -.0018226930
          -.0004436130
          -.0013994551
          -.0009340734
          -.0011010101
          -.0008100078
          -.0021607296
          -.0012599535
          -.0016221051
          -.0010418786
          -.0011661164
          -.0008588073
          -.0023194677
          -.0013608132
          -.0017338686
          -.0011110202
          -.0012397426
          -.0009195862
          -.0024693192
          -.0014542080
          -.0018406777
          -.0011787430
          -.0013026404
          -.0009331203
          -.0025879969
          -.0015425992
          -.0019151442
          -.0011030583
          -.0012075609
          0.0000269305
          -.0023868445
          -.0014729730
          -.0010789350
          -.0007048360
          -.0008372979
          -.0008393194
          -.0009710471
          -.0007368405
          -.0011205289
          -.0008392702
          -.0010412092
          -.0009554969
          -.0010136123
          -.0007762674
          -.0011846951
          -.0008813563
          -.0011023316
          -.0010033093
          -.0010672706
          -.0008086895
          -.0012341342
          -.0009119185
          -.0011646394
          -.0010246960
          -.0010810755
          -.0007826382
          -.0011819404
          -.0008318188
          -.0011868556
          -.0009326692
          -.0007404864
          -.0006749963
          -.0008703767
          -.0009037512
          -.0007533014
          -.0009512305
          -.0008761146
          -.0008439865
          -.0009826693
          -.0009296096
          -.0007825357
          -.0009823539
          -.0009028358
          -.0008803272
          -.0009990461
          -.0009374501
          -.0007586053
          -.0009499923
          -.0008353112
          -.0008937126
          -.0009753464
          -.0007860065
          -.0007086360
          -.0009188121
          -.0009459810
          -.0007865577
          -.0009757704
          -.0009117540
          -.0008793329
          -.0010043989
          -.0009345757
          -.0007608211
          -.0009403358
          -.0008406423
          -.0008850970
          -.0010127060
          -.0008193034
          -.0007501219
          -.0009397746
          -.0009567938
          -.0007682286
          -.0009445390
          -.0008484948
          -.0008948680
          -.0010251586
          -.0007471257
          -.0008042092
          0.0000000000
          0.0000000000
          0.0000000000
          0.0000000000
          0.0382123291
          0.0114748683
          0.0164768267
          0.0068580373
          0.0388919152
          0.0126270056
          0.0871152878
          0.0151589578
          0.0646808296
          0.0139949182
          0.0753361061
          0.0199003518
          0.1344635934
          0.0225215945
          0.1172676459
          0.0222813021
          0.1115926951
          0.0268004797
          0.1812128574
          0.0296425372
          0.1693765819
          0.0304082744
          0.1473623812
          0.0335842371
          0.2272586077
          0.0366363153
          0.2208073586
          0.0384129174
          0.1825644672
          0.0402549356
          0.2724963427
          0.0435637869
          0.2713622153
          0.0463509858
          0.2174313962
          0.0475381613
          0.3187139928
          0.0527672768
          0.3204504251
          0.0582106039
          0.2594522238
          0.0705045983
          0.3963639736
          0.0863780677
          0.3568221331
          0.0042707087
          -.0016639499
          0.0044286586
          -.0006458865
          0.0035059252
          -.0000827320
          0.0073789703
          -.0030186125
          0.0071814172
          -.0010108026
          0.0054762065
          -.0002012801
          0.0102631943
          -.0045016916
          0.0108571695
          -.0014681239
          0.0073002446
          -.0003952426
          0.0130898654
          -.0060143047
          0.0144130094
          -.0019387223
          0.0090839593
          -.0005852125
          0.0158830136
          -.0074955020
          0.0179085024
          -.0024036597
          0.0108986078
          -.0006940268
          0.0191724394
          -.0086807981
          0.0214368626
          -.0027422889
          0.0143630104
          0.0009080244
          0.0328702666
          -.0088316109
          0.0269344375
          -.0003691447
          -.0004952252
          -.0003585347
          -.0004380734
          -.0003867480
          -.0003869952
          -.0004884658
          -.0005924029
          -.0005080407
          -.0005335942
          -.0004822887
          -.0004599875
          -.0006503894
          -.0007154618
          -.0006988755
          -.0006310474
          -.0006037754
          -.0005309788
          -.0008105757
          -.0008380534
          -.0009012837
          -.0007270502
          -.0007203562
          -.0005953361
          -.0009360035
          -.0009471814
          -.0010922416
          -.0008110167
          -.0007642673
          -.0006132255
          -.0006708280
          -.0011967956
          -.0010788912
          -.0004655461
          -.0004095781
          -.0003541946
          -.0004771755
          -.0004789848
          -.0004229635
          -.0005192374
          -.0004844902
          -.0004566652
          -.0005529554
          -.0005301727
          -.0004610573
          -.0005819718
          -.0005271655
          -.0005183638
          -.0006029198
          -.0005874957
          -.0004959556
          -.0006353935
          -.0005620838