<VTKFile type="UnstructuredGrid" version="0.1" byte_order="LittleEndian">
  <UnstructuredGrid>
    <Piece NumberOfPoints="1152" NumberOfCells="384">
      <PointData Scalars="scalars">
        <DataArray type="Float32" Name="Tracer" Format="ascii">
          0.0294814203
          -.0014826901
          0.0123328669
          -.0009148936
          0.0220740866
          0.0001547723
          0.0682706535
          -.0101730293
          0.0517333113
          -.0017788718
          0.0437282734
          -.0005477266
          0.1058093235
          -.0181749240
          0.0937381387
          -.0025472390
          0.0649820194
          -.0013712887
          0.1429278702
          -.0261822361
          0.1353014708
          -.0033266768
          0.0859708637
          -.0021888483
          0.1794885993
          -.0340886228
          0.1763335317
          -.0040934961
          0.1066239253
          -.0029978342
          0.2153483778
          -.0418619215
          0.2166769803
          -.0048436206
          0.1268955469
          -.0037219282
          0.2506381273
          -.0491793305
          0.2560469806
          -.0047552846
          0.1502326578
          0.0030828360
          0.3165166676
          -.0503402501
          0.2796722353
          -.0000282428
          -.0009189494
          -.0002026074
          -.0004214073
          0.0002482741
          -.0002082103
          -.0001714434
          -.0012860347
          -.0003349903
          -.0006354225
          0.0003285149
          -.0003209308
          -.0003865513
          -.0018528020
          -.0005184403
          -.0009046815
          0.0003595724
          -.0004370222
          -.0006016588
          -.0024194315
          -.0007182581
          -.0011725908
          0.0003878824
          -.0005513611
          -.0008144227
          -.0029767491
          -.0009157611
          -.0014359226
          0.0004156907
          -.0006613329
          -.0009841991
          -.0035035529
          -.0011072620
          -.0016928376
          0.0006442741
          -.0005245123
          0.0011316547
          -.0045428108
          -.0008320836
          -.0001885245
          -.0001461576
          -.0001552948
          -.0001705103
          -.0001519538
          -.0001230143
          -.0002445154
          -.0001653509
          -.0002186643
          -.0002004482
          -.0001848705
          -.0001386938
          -.0003082037
          -.0001864989
          -.0002955351
          -.0002293124
          -.0002222450
          -.0001550277
          -.0003708412
          -.0002077511
          -.0003734234
          -.0002576020
          -.0002588685
          -.0001706255
          -.0004300598
          -.0002268997
          -.0004499627
          -.0002821459
          -.0002870717
          -.0001715329
          -.0004516944
          -.0002433732
          -.0005017619
          -.0001955669
          -.0001741807
          -.0001155057
          -.0002141786
          -.0001833627
          -.0001497674
          -.0002157159
          -.0001954781
          -.0001421344
          -.0002408582
          -.0002017164
          -.0001617304
          -.0002398675
          -.0002134867
          -.0001598557
          -.0002637232
          -.0002233486
          -.0001745913
          -.0002620695
          -.0002305299
          -.0001786849
          -.0002824435
          -.0002392686
          -.0001706344
          -.0002560912
          -.0002174332
          -.0002020017
          -.0002434897
          -.0002140309
          -.0001488435
          -.0002614956
          -.0002276810
          -.0001771320
          -.0002597010
          -.0002334576
          -.0001760384
          -.0002865090
          -.0002428855
          -.0001871994
          -.0002799926
          -.0002486155
          -.0001911613
          -.0003034170
          -.0002569440
          -.0001811594
          -.0002690980
          -.0002324189
          -.0002132080
          -.0002887748
          -.0002504048
          -.0001818296
          -.0003047108
          -.0002689555
          -.0002015117
          -.0003003291
          -.0002663342
          -.0002097221
          -.0003237821
          -.0002755128
          -.0001913798
          -.0002864735
          -.0002461364
          -.0002290472
          -.0003283453
          -.0002820611
          -.0002125477
          -.0003385578
          -.0003000799
          -.0002033471
          -.0003027327
          -.0002600684
          -.0002465739
          -.0003208746
          -.0002649871
          -.0002567697
          0.2761051953
          -.0462916940
          0.3168383539
          -.0085308868
          0.1476422995
          -.0003926922
          0.2487829775
          -.0481252670
          0.2551143467
          -.0078632180
          0.1301544607
          0.0014452254
          0.2105735838
          -.0400563702
          0.2201062590
          -.0061392300
          0.1095528975
          0.0011025909
          0.1711534113
          -.0328962691
          0.1833699793
          -.0047589391
          0.0882507265
          0.0007154066
          0.1310630739
          -.0256577432
          0.1458498240
          -.0033761580
          0.0665969923
          0.0003248150
          0.0904608816
          -.0183202289
          0.1077583730
          -.0019805674
          0.0446841456
          -.0000648848
          0.0495288074
          -.0108930022
          0.0692423359
          -.0005632283
          0.0227827672
          -.0000871496
          0.0120437499
          -.0020444472
          0.0298279691
          -.0009149786
          -.0038023146
          -.0000997148
          -.0022539233
          -.0000213964
          -.0007711363
          -.0005094535
          -.0031767220
          -.0012141957
          -.0018755540
          0.0000619894
          -.0006257855
          -.0004240868
          -.0026456756
          -.0009222191
          -.0015672384
          0.0000297536
          -.0005242409
          -.0003885054
          -.0021325254
          -.0007246407
          -.0012683696
          -.0000224528
          -.0004223110
          -.0003529158
          -.0016138029
          -.0005323326
          -.0009656008
          -.0000753461
          -.0003186155
          -.0003117645
          -.0010866785
          -.0003382092
          -.0006614119
          -.0001130103
          -.0001958012
          0.0001310563
          -.0004395497
          -.0000972740
          -.0005538530
          -.0002297774
          -.0005982224
          -.0003195251
          -.0003340608
          -.0001824555
          -.0004698537
          -.0002172928
          -.0005375537
          -.0002947586
          -.0002879879
          -.0001631065
          -.0004030383
          -.0001947450
          -.0004555425
          -.0002640561
          -.0002492020
          -.0001452568
          -.0003363770
          -.0001728720
          -.0003770549
          -.0002332051
          -.0002101964
          -.0001268768
          -.0002678176
          -.0001498461
          -.0002976208
          -.0001989391
          -.0001671455
          -.0000988907
          -.0001841190
          -.0001118792
          -.0002177738
          -.0002925579
          -.0002442780
          -.0002008184
          -.0003058133
          -.0002421058
          -.0001792008
          -.0002583951
          -.0002315247
          -.0001960383
          -.0002880191
          -.0002143042
          -.0001629725
          -.0002332785
          -.0002118475
          -.0001757413
          -.0002637793
          -.0001926572
          -.0001482412
          -.0002064196
          -.0001918787
          -.0001571800
          -.0002357721
          -.0001665559
          -.0001213943
          -.0001650114
          -.0001530134
          -.0001411358
          -.0003083437
          -.0002617571
          -.0002055256
          -.0003265273
          -.0002587269
          -.0001921651
          -.0002755177
          -.0002501659
          -.0002042021
          -.0003102050
          -.0002317394
          -.0001762733
          -.0002515698
          -.0002302494
          -.0001860294
          -.0002830671
          -.0002065202
          -.0001478891
          -.0002088882
          -.0001877172
          -.0001732596
          -.0003298036
          -.0002772137
          -.0002188779
          -.0003461160
          -.0002772520
          -.0002043048
          -.0002963657
          -.0002658600
          -.0002195017
          -.0003267812
          -.0002450304
          -.0001723488
          -.0002521742
          -.0002191450
          -.0002064053
          -.0003488291
          -.0002907142
          -.0002319634
          -.0003585458
          -.0002880975
          -.0001964872
          -.0002912504
          -.0002483087
          -.0002389765
          -.0003332168
          -.0002626968
          -.0002597936
          -.0004283421
          -.0003472030
          -.0002152783
          -.0004508328
          -.0003328587
          -.0002191742
          -.0004120513
          -.0003351419
          -.0002200091
          -.0004495626
          -.0003264969
          -.0002169862
          -.0004119816
          -.0003343008
          -.0002186933
          -.0004493314
          -.0003264149
          -.0002169590
          -.0004120133
          -.0003342832
          -.0002186804
          -.0004493308
          -.0003264841
          -.0002169862
          -.0004131682
          -.0003339128
          -.0002191008
          -.0004494133
          -.0003282372
          -.0002174409
          -.0003969339
          -.0002903172
          -.0002344764
          -.0002535313
          -.0000168613
          0.0007181555
          0.0096110255
          0.0079175271
          -.0007233061
          0.0090419427
          0.0214344934
          0.1283733547
          0.4672209322
          0.3832581639
          -.0668184012
          -.0004520793
          -.0003524336
          -.0002573070
          -.0004700185
          -.0003580058
          -.0002282852
          -.0004376197
          -.0003412385
          -.0002555527
          -.0004690994
          -.0003517881
          -.0002262759
          -.0004377056
          -.0003404617
          -.0002543454
          -.0004688887
          -.0003517354
          -.0002262483
          -.0004377105
          -.0003404531
          -.0002543340
          -.0004688869
          -.0003517325
          -.0002262469
          -.0003992938
          -.0003059061
          -.0002543541
          -.0002741785
          -.0000636485
          0.0007130090
          0.0091111977
          0.0083252285
          -.0002228144
          0.0090910643
          0.0162409283
          0.1314040273
          0.4316886663
          0.4227091670
          -.0970745981
          -.0004731352
          -.0003653915
          -.0002703157
          -.0004872857
          -.0003752172
          -.0002353898
          -.0004581941
          -.0003534401
          -.0002684421
          -.0004862472
          -.0003687657
          -.0002333379
          -.0004582877
          -.0003526380
          -.0002671939
          -.0004860302
          -.0003687121
          -.0002333100
          -.0004187329
          -.0003172409
          -.0002671809
          -.0002891582
          -.0000700554
          0.0007309931
          0.0094278669
          0.0085949078
          -.0002368527
          0.0092117973
          0.0169307739
          0.1359016001
          0.4517568350
          0.4386259913
          -.1014351770
          -.0004872671
          -.0003726676
          -.0002797775
          -.0004969993
          -.0003866911
          -.0002388471
          -.0004720214
          -.0003601394
          -.0002777906
          -.0004958491
          -.0003800965
          -.0002367831
          -.0004320343
          -.0003236420
          -.0002765162
          -.0002997422
          -.0000752513
          0.0007376245
          0.0096040200
          0.0087312404
          -.0002450392
          0.0091833510
          0.0173814446
          0.1382870376
          0.4651949108
          0.4476295412
          -.1039721966
          -.0004937796
          -.0003741931
          -.0002849049
          -.0004991164
          -.0003921327
          -.0002386155
          -.0004384986
          -.0003257961
          -.0002828128
          -.0003058219
          -.0000793424
          0.0007327346
          0.0096303122
          0.0087313168
          -.0002494245
          0.0090116244
          0.0175609626
          0.1385145932
          0.4713745117
          0.4496477246
          -.1048867926
          -.0004520678
          -.0003383801
          -.0002883218
          -.0002982880
          -.0000868838
          0.0007233116
          0.0095068365
          0.0085967667
          -.0002502033
          0.0087096412
          0.0174642541
          0.1365844607
          0.4701982737
          0.4446497262
          -.1041647196
          0.0092126345
          0.0086398190
          -.0005230224
          0.0111802034
          0.0171084683
          0.1342517585
          0.4616441429
          0.4329776764
          -.1016754508
          0.4351394475
          0.4668649733
          -.0769096166
          -.0672184080
          0.3812103271
          0.4720280766
          0.1326706260
          0.0084472634
          -.0008018883
          -.0035078251
          -.0005577395
          0.0036697921
          -.0000012286
          -.0010432313
          -.0003145767
          -.0004114668
          -.0004044500
          -.0003751206
          -.0004511386
          -.0003394941
          -.0002185329
          -.0003886131
          -.0003422502
          -.0002169479
          -.0004364209
          -.0003311516
          -.0002169779
          -.0003884426
          -.0003417129
          -.0002140259
          -.0004362321
          -.0003310845
          -.0002169902
          -.0003884387
          -.0003417165
          -.0002139822
          -.0004362244
          -.0003310730
          -.0002169548
          -.0003880041
          -.0003413771
          -.0002139990
          -.0004345863
          -.0003282133
          -.0002083943
          -.0003503860
          -.0003121439
          -.0002165797
          -.0980812013
          0.4191603661
          0.4358147085
          0.1401092857
          0.0048547406
          0.0009134458
          -.0034357980
          -.0002289114
          0.0017687280
          0.0000507777
          -.0010583180
          -.0002872765
          -.0004269973
          -.0004067643
          -.0003857484
          -.0004699239
          -.0003665136
          -.0002281913
          -.0004235776
          -.0003443506
          -.0002587489
          -.0004563594
          -.0003614015
          -.0002261972
          -.0004237329
          -.0003436213
          -.0002575739
          -.0004561653
          -.0003613740
          -.0002261482
          -.0004233691
          -.0003432761
          -.0002576220
          -.0004544738
          -.0003588280
          -.0002177416
          -.0003921663
          -.0003120356
          -.0002625067
          -.1020065248
          0.4349652827
          0.4565867782
          0.1448950619
          0.0050943512
          0.0007379139
          -.0035474286
          -.0002773816
          0.0018323855
          0.0000339343
          -.0010993587
          -.0002971799
          -.0004465736
          -.0004213929
          -.0004034302
          -.0004872650
          -.0003840605
          -.0002351130
          -.0004434556
          -.0003565498
          -.0002721171
          -.0004731619
          -.0003788057
          -.0002330499
          -.0004432387
          -.0003554523
          -.0002709679
          -.0004712538
          -.0003761541
          -.0002243949
          -.0004109738
          -.0003230965
          -.0002760162
          -.1045897976
          0.4438866377
          0.4701323211
          0.1473847479
          0.0052103754
          0.0005502300
          -.0036120499
          -.0003268917
          0.0018514204
          0.0000149894
          -.0011250046
          -.0003023649
          -.0004595382
          -.0004296209
          -.0004158379
          -.0004970625
          -.0003956805
          -.0002383441
          -.0004563271
          -.0003629227
          -.0002817976
          -.0004809152
          -.0003876799
          -.0002275797
          -.0004236463
          -.0003292466
          -.0002856915
          -.1055431366
          0.4458819330
          0.4763374627
          0.1475744694
          0.0052447505
          0.0003539957
          -.0036203789
          -.0003712922
          0.0018413092
          -.0000041918
          -.0011330987
          -.0003027995
          -.0004649546
          -.0004307932
          -.0004218258
          -.0004973579
          -.0003984421
          -.0002290988
          -.0004295404
          -.0003309686
          -.0002921300
          -.1048495024
          0.4409193695
          0.4751094878
          0.1454636753
          0.0051972829
          0.0001570154
          -.0035711620
          -.0004074445
          0.0018027762
          0.0000050011
          -.0011254388
          -.0002634894
          -.0004306632
          -.0003882504
          -.0004254540
          -.1024316922
          0.4292012751
          0.4664431810
          0.1428353339
          0.0050631277
          0.0031541726
          -.0030350753
          0.0006821724
          0.0019456528
          -.0774517357
          0.4665178061
          0.4373058975
          0.4854100049
          -.0958613902
          0.6175286770
          -.0087825619
          0.2759906650
          -.0127108209
          0.4702534378
          -.1044064239
          0.5376208425
          -.0099687800
          0.2635323703
          -.0108578131
          0.4456788898
          -.0986157954
          0.5116837025
          -.0092391595
          0.2493548393
          -.0103374347
          0.4190850556
          -.0930910185
          0.4832509756
          -.0086566582
          0.2340487838
          -.0098029934
          0.3908499777
          -.0872344300
          0.4528854191
          -.0080487989
          0.2178235948
          -.0092308596
          0.3610883951
          -.0810382068
          0.4207499325
          -.0074092112
          0.2007762194
          -.0085627884
          0.3302063048
          -.0742492080
          0.3868666291
          -.0061737318
          0.1859752238
          -.0016903728
          0.3296160698
          -.0580661222
          0.3402166665
          -.0032631550
          -.0073449127
          -.0009999424
          -.0035453686
          0.0001751538
          -.0015392378
          -.0029045129
          -.0071490435
          -.0026444960
          -.0034109019
          0.0001798167
          -.0014521773
          -.0027493620
          -.0067489934
          -.0024639731
          -.0032227784
          0.0001515585
          -.0013711280
          -.0026088292
          -.0063324594
          -.0023206188
          -.0030270820
          0.0001146758
          -.0012860098
          -.0024591177
          -.0058926302
          -.0021723267
          -.0028200040
          0.0000776930
          -.0011941508
          -.0022672671
          -.0054145148
          -.0020136414
          -.0026018033
          0.0002164837
          -.0008856222
          -.0001844577
          -.0052635968
          -.0014860407
          -.0008764638
          -.0003356843
          -.0010263680
          -.0004247119
          -.0005263562
          -.0002452103
          -.0008239802
          -.0003114162
          -.0010139407
          -.0004103466
          -.0004930260
          -.0002316664
          -.0007790816
          -.0002940741
          -.0009574565
          -.0003889903
          -.0004660091
          -.0002187903
          -.0007319430
          -.0002771157
          -.0009007518
          -.0003667822
          -.0004375539
          -.0002050517
          -.0006803312
          -.0002579977
          -.0008408376
          -.0003402280
          -.0004001227
          -.0001749424
          -.0005918212
          -.0002334091
          -.0007630565
          -.0003808846
          -.0003254319
          -.0002616742
          -.0003734693
          -.0003424693
          -.0002188444
          -.0003505352
          -.0002946520
          -.0002804713
          -.0003590676
          -.0003159439
          -.0002073150
          -.0003320841
          -.0002789282
          -.0002635898
          -.0003405819
          -.0002986288
          -.0001956631
          -.0003113696
          -.0002625519
          -.0002491949
          -.0003178809
          -.0002754248
          -.0001671173
          -.0002635101
          -.0002180511
          -.0002395971
          -.0003706665
          -.0003276797
          -.0002474017
          -.0003734164
          -.0003378120
          -.0002186729
          -.0003407609
          -.0002967767
          -.0002665328
          -.0003589431
          -.0003114140
          -.0002069420
          -.0003217864
          -.0002799000
          -.0002505846
          -.0003367392
          -.0002890542
          -.0001778708
          -.0002731704
          -.0002339863
          -.0002432452
          -.0003705859
          -.0003277506
          -.0002473107
          -.0003733906
          -.0003376679
          -.0002184220
          -.0003395294
          -.0002957402
          -.0002666244
          -.0003549963
          -.0003056531
          -.0001882876
          -.0002902951
          -.0002476456
          -.0002572455
          -.0003693420
          -.0003264764
          -.0002475188
          -.0003688441
          -.0003318834
          -.0001984864
          -.0003062918
          -.0002613699
          -.0002737152
          -.0003228161
          -.0002698274
          -.0002520401
          0.3372851312
          -.0505776331
          0.3315940797
          -.0112013221
          0.1875468642
          0.0022187326
          0.3784698844
          -.0678871721
          0.3385915160
          -.0141460262
          0.2071752846
          0.0042571016
          0.4117837548
          -.0731820241
          0.3710482121
          -.0149590187
          0.2249957472
          0.0045711640
          0.4431270957
          -.0788966790
          0.4016057253
          -.0159666352
          0.2417188883
          0.0048305206
          0.4727381468
          -.0843445063
          0.4305404723
          -.0169250332
          0.2574922144
          0.0050705262
          0.5005032420
          -.0894638523
          0.4577924609
          -.0178182796
          0.2722620070
          0.0052939765
          0.5264631510
          -.0941449851
          0.4832541943
          -.0188476294
          0.2860049307
          0.0078270584
          0.6069229841
          -.1012856737
          0.4906420112
          -.0002704062
          -.0043570008
          -.0002124561
          -.0026583169
          0.0005931433
          -.0009962757
          -.0002776957
          -.0050378130
          -.0019613327
          -.0029766629
          0.0006049033
          -.0010507264
          -.0002732524
          -.0054495563
          -.0020697331
          -.0032125711
          0.0006531246
          -.0011305036
          -.0003089285
          -.0058454280
          -.0022073244
          -.0034429147
          0.0006850224
          -.0012075354
          -.0003447062
          -.0062204949
          -.0023422409
          -.0036605890
          0.0007132941
          -.0012803916
          -.0003889333
          -.0065774918
          -.0024672067
          -.0038548931
          0.0007299734
          -.0013709486
          0.0002416745
          -.0070054550
          -.0026262142
          -.0006644137
          -.0002377313
          -.0006708009
          -.0003391904
          -.0004059274
          -.0002189454
          -.0007134241
          -.0002733229
          -.0007965794
          -.0003745685
          -.0004342990
          -.0002309192
          -.0007656238
          -.0002896461
          -.0008582359
          -.0003986105
          -.0004643174
          -.0002443842
          -.0008159816
          -.0003058607
          -.0009189215
          -.0004217215
          -.0004930333
          -.0002569452
          -.0008632506
          -.0003208036
          -.0009765485
          -.0004394147
          -.0005144275
          -.0002563966
          -.0009190766
          -.0002821237
          -.0010372081
          -.0003298495
          -.0002450745
          -.0002028575
          -.0003162218
          -.0002808175
          -.0002048863
          -.0003403743
          -.0002678259
          -.0002344767
          -.0003423324
          -.0002911987
          -.0002139903
          -.0003602574
          -.0002817725
          -.0002474199
          -.0003608482
          -.0003073618
          -.0002243453
          -.0003781518
          -.0002954492
          -.0002617633
          -.0003753122
          -.0003160144
          -.0002220427
          -.0003859428
          -.0002648674
          -.0002759021
          -.0003407267
          -.0002627563
          -.0002058274
          -.0003363002
          -.0002939394
          -.0002161504
          -.0003481670
          -.0002848570
          -.0002352650
          -.0003612337
          -.0003022091
          -.0002241099
          -.0003653087
          -.0002973053
          -.0002462376
          -.0003750283
          -.0003102875
          -.0002216410
          -.0003722500
          -.0002673026
          -.0002593722
          -.0003601779
          -.0002781519
          -.0002191660
          -.0003552752
          -.0003103006
          -.0002267840
          -.0003650581
          -.0002988685
          -.0002486537
          -.0003757795
          -.0003104165
          -.0002218334
          -.0003720809
          -.0002674690
          -.0002593013
          -.0003778664
          -.0002923352
          -.0002322161
          -.0003690473
          -.0003187282
          -.0002244873
          -.0003719861
          -.0002691114
          -.0002618966
          -.0003956793
          -.0002680302
          -.0002582421
          0.0000000000
          0.0000000000
          0.0000000000
          0.0000000000
          0.0216636285
          -.0051653162
          0.0082437051
          -.0015556875
          0.0121833934
          -.0020482226
          0.0497828424
          -.0169129651
          0.0373225808
          -.0035455101
          0.0242839959
          -.0037777587
          0.0771953017
          -.0287839491
          0.0677268431
          -.0055727046
          0.0361444466
          -.0055238404
          0.1043037027
          -.0405692719
          0.0978304297
          -.0075836824
          0.0478602126
          -.0072483523
          0.1310048103
          -.0521965921
          0.1275511831
          -.0095651364
          0.0593890361
          -.0089445533
          0.1571943611
          -.0636200905
          0.1567738205
          -.0115092350
          0.0706859529
          -.0106058195
          0.1827688664
          -.0747959390
          0.1853843033
          -.0133440970
          0.0835202038
          -.0085395109
          0.2289544940
          -.0881480724
          0.2035285085
          -.0003300290
          -.0003298933
          -.0004011156
          -.0002037433
          0.0000561476
          -.0000597237
          -.0006543171
          -.0004009785
          -.0007499184
          -.0003006285
          0.0000451242
          -.0000910798
          -.0009985550
          -.0005537154
          -.0011553380
          -.0004148282
          0.0000195395
          -.0001242414
          -.0013395436
          -.0007066817
          -.0015608000
          -.0005279681
          -.0000065415
          -.0001569599
          -.0016753091
          -.0008569492
          -.0019602883
          -.0006390593
          -.0000326057
          -.0001890658
          -.0020045117
          -.0010038499
          -.0023521241
          -.0007460791
          -.0000062084
          -.0001096162
          -.0015098886
          -.0013361482
          -.0026723503
          -.0000882127
          -.0000766281
          -.0000539909
          -.0000935287
          -.0000641685
          -.0000527267
          -.0001097485
          -.0000865819
          -.0000762547
          -.0001092618
          -.0000754189
          -.0000584259
          -.0001334088
          -.0000989076
          -.0001017546
          -.0001248458
          -.0000881860
          -.0000645252
          -.0001565956
          -.0001111560
          -.0001274955
          -.0001400364
          -.0001006747
          -.0000704064
          -.0001791412
          -.0001229561
          -.0001527618
          -.0001536381
          -.0001104798
          -.0000685363
          -.0001695920
          -.0001227745
          -.0001765759
          -.0001056522
          -.0000910771
          -.0000473173
          -.0001184233
          -.0000895033
          -.0000653943
          -.0001181601
          -.0000991152
          -.0000561759
          -.0001320181
          -.0000990131
          -.0000702889
          -.0001312677
          -.0001084180
          -.0000637743
          -.0001447994
          -.0001097975
          -.0000755932
          -.0001438214
          -.0001175402