<VTKFile type="UnstructuredGrid" version="0.1" byte_order="LittleEndian">
  <UnstructuredGrid>
    <Piece NumberOfPoints="1152" NumberOfCells="384">
      <PointData Scalars="scalars">
        <DataArray type="Float32" Name="Tracer" Format="ascii">
          0.0411996618
          0.0172694717
          0.0173840057
          0.0120491125
          0.0450742766
          0.0195885710
          0.0926016644
          0.0261934847
          0.0679123625
          0.0234897286
          0.0862426683
          0.0312415287
          0.1426102370
          0.0399727635
          0.1230551451
          0.0368054956
          0.1275388300
          0.0426558144
          0.1919364184
          0.0535399318
          0.1778307706
          0.0499223024
          0.1682726145
          0.0538740084
          0.2405229360
          0.0668802038
          0.2318869531
          0.0628412738
          0.2083782703
          0.0649469644
          0.2883773744
          0.0801839456
          0.2850113809
          0.0757929832
          0.2484067678
          0.0772341043
          0.3380917311
          0.0971362740
          0.3366822600
          0.0949002877
          0.2966519296
          0.1069748402
          0.4139947891
          0.1388801932
          0.3796009719
          0.0082141841
          -.0003906895
          0.0086923279
          0.0001824878
          0.0073464666
          0.0011093426
          0.0139088323
          -.0018360311
          0.0136125777
          0.0001133701
          0.0113308970
          0.0015189335
          0.0195147488
          -.0028849877
          0.0204741545
          0.0001258824
          0.0152562652
          0.0017661478
          0.0250028372
          -.0039992305
          0.0271959826
          0.0001015633
          0.0191005934
          0.0020145522
          0.0304629002
          -.0050630420
          0.0338066593
          0.0000880063
          0.0230868608
          0.0025100878
          0.0371092111
          -.0053933999
          0.0405721888
          0.0006095567
          0.0303425249
          0.0065616951
          0.0593506284
          -.0015231860
          0.0508022681
          -.0000736566
          -.0007943701
          0.0000138677
          -.0006260695
          -.0002600337
          -.0005527745
          -.0000400427
          -.0010060617
          -.0000628811
          -.0007771556
          -.0002866841
          -.0006671069
          -.0000741868
          -.0012562771
          -.0000869033
          -.0009342185
          -.0003584165
          -.0007817447
          -.0001077975
          -.0015055567
          -.0001372687
          -.0010892192
          -.0004153272
          -.0008766782
          -.0000288205
          -.0017154891
          -.0001528647
          -.0012212029
          -.0002265857
          -.0007988132
          0.0013635485
          -.0020627249
          0.0003209100
          -.0006478835
          -.0005791619
          -.0005234234
          -.0006545483
          -.0006831211
          -.0006117133
          -.0007332974
          -.0006954393
          -.0006824979
          -.0007702708
          -.0007631515
          -.0006728087
          -.0008270944
          -.0007599543
          -.0007831799
          -.0008401208
          -.0008476190
          -.0007217355
          -.0009035811
          -.0008084828
          -.0008826026
          -.0008814411
          -.0009001544
          -.0007104533
          -.0009202501
          -.0008042222
          -.0009521513
          -.0007638811
          -.0006893678
          -.0005984608
          -.0007850589
          -.0008107080
          -.0007201729
          -.0008174278
          -.0008124218
          -.0007655176
          -.0008978663
          -.0008646916
          -.0007615066
          -.0008619974
          -.0008498100
          -.0008253314
          -.0009259600
          -.0008916472
          -.0007281906
          -.0008334498
          -.0007992683
          -.0008714547
          -.0008996331
          -.0008070773
          -.0007175060
          -.0009109936
          -.0009465856
          -.0008162165
          -.0009224857
          -.0009135631
          -.0008931184
          -.0009896131
          -.0009524014
          -.0007715810
          -.0008740908
          -.0008491027
          -.0009254728
          -.0010049827
          -.0008953114
          -.0008313716
          -.0009843513
          -.0010294094
          -.0008115522
          -.0009247264
          -.0008935978
          -.0009917922
          -.0009704296
          -.0008141702
          -.0009317462
          0.3659436107
          0.1360239238
          0.4059024453
          0.1065080017
          0.2890847027
          0.0872616395
          0.3212452829
          0.0981446281
          0.3441774547
          0.0856129006
          0.2480258197
          0.0763480067
          0.2726135254
          0.0846708789
          0.2958985865
          0.0737580732
          0.2089301050
          0.0634450167
          0.2211419642
          0.0699653625
          0.2468076348
          0.0608312264
          0.1679681540
          0.0498328321
          0.1688240618
          0.0545745082
          0.1963850409
          0.0474807955
          0.1263012737
          0.0360167436
          0.1158788130
          0.0389796644
          0.1451760232
          0.0339616537
          0.0842409357
          0.0222366005
          0.0630568191
          0.0238381550
          0.0933820158
          0.0209512077
          0.0435086563
          0.0111742308
          0.0178014934
          0.0167433545
          0.0417113900
          0.0461605601
          -.0016925847
          0.0579380356
          0.0011107959
          0.0286132805
          0.0019729973
          0.0388804190
          -.0049315821
          0.0418944471
          -.0002610344
          0.0238306969
          0.0020901726
          0.0327597745
          -.0040406263
          0.0356086232
          -.0001055866
          0.0197615810
          0.0015884296
          0.0260159094
          -.0032942565
          0.0290664323
          -.0000972834
          0.0153708132
          0.0010345819
          0.0191539563
          -.0025822185
          0.0222782977
          -.0001121643
          0.0109289046
          0.0005083795
          0.0124169579
          -.0017609972
          0.0154292881
          -.0001056551
          0.0069433353
          0.0004848897
          0.0090739727
          0.0003459129
          0.0092782117
          -.0002354083
          -.0020903833
          0.0003258380
          -.0015435843
          -.0006993314
          -.0010458160
          -.0002203717
          -.0018720184
          -.0004552377
          -.0014028439
          -.0006049025
          -.0009018983
          -.0002354145
          -.0015955502
          -.0003885979
          -.0012173824
          -.0005547127
          -.0007867739
          -.0002879373
          -.0013272662
          -.0003809948
          -.0010373794
          -.0005179644
          -.0006645698
          -.0003202179
          -.0010446120
          -.0003793366
          -.0008397459
          -.0004324549
          -.0004838837
          -.0000567793
          -.0007046179
          -.0003217818
          -.0010990257
          -.0008230494
          -.0009741923
          -.0009355452
          -.0009801077
          -.0007590039
          -.0009575678
          -.0008467018
          -.0009873896
          -.0009299701
          -.0008649608
          -.0006964199
          -.0008466666
          -.0007692674
          -.0008731826
          -.0008440276
          -.0007662100
          -.0006222365
          -.0007263134
          -.0006804757
          -.0007635459
          -.0007358524
          -.0006448337
          -.0005037418
          -.0005785972
          -.0005473431
          -.0006444628
          -.0009725449
          -.0008382802
          -.0007749258
          -.0009615796
          -.0009331433
          -.0007908616
          -.0008704272
          -.0008879464
          -.0008565235
          -.0009713579
          -.0008395636
          -.0007258672
          -.0007757509
          -.0008037224
          -.0007777400
          -.0008658635
          -.0007313520
          -.0006019849
          -.0006508947
          -.0006588253
          -.0006927024
          -.0010275397
          -.0008910922
          -.0008111208
          -.0010177253
          -.0009889511
          -.0008331029
          -.0009118028
          -.0009326827
          -.0009061681
          -.0010019131
          -.0008635839
          -.0007030600
          -.0007775767
          -.0007739255
          -.0008184366
          -.0010682717
          -.0009227767
          -.0008592278
          -.0010283804
          -.0010035872
          -.0007879411
          -.0008980521
          -.0008721678
          -.0009436830
          -.0010130608
          -.0008093510
          -.0009094173
          -.0012203041
          -.0011339753
          -.0008611181
          -.0013095518
          -.0011593351
          -.0009751961
          -.0011528417
          -.0011774562
          -.0009879336
          -.0013309520
          -.0011320449
          -.0009600343
          -.0011491670
          -.0011688969
          -.0009777554
          -.0013265627
          -.0011302385
          -.0009590526
          -.0011522732
          -.0011672919
          -.0009780353
          -.0013205525
          -.0011319505
          -.0009430684
          -.0010992545
          -.0010569534
          -.0010167448
          -.0009506653
          -.0007011591
          0.0002245317
          0.0038897868
          0.0033006838
          -.0009629583
          0.0107910093
          0.0150073785
          0.0307789017
          0.1007031202
          0.0806508213
          0.0219727084
          0.1569734514
          0.1932076812
          0.3697233498
          0.7035669684
          0.6092112064
          0.2509188652
          -.0013529967
          -.0011557102
          -.0010586741
          -.0013647873
          -.0012653978
          -.0010192336
          -.0012774890
          -.0012000207
          -.0011418114
          -.0013860561
          -.0012354265
          -.0010058461
          -.0012739784
          -.0011907197
          -.0011318845
          -.0013756864
          -.0012256008
          -.0009814661
          -.0011503620
          -.0010742160
          -.0011329780
          -.0009851886
          -.0007394741
          0.0002247887
          0.0035431930
          0.0033219275
          -.0008170511
          0.0109780151
          0.0133684138
          0.0298363548
          0.0858277231
          0.0807335377
          0.0170318726
          0.1558011025
          0.1731718779
          0.3662876487
          0.6522105932
          0.6377192140
          0.1792286634
          -.0014130864
          -.0012007356
          -.0011080719
          -.0014153334
          -.0013210417
          -.0010549783
          -.0013332507
          -.0012434294
          -.0011930490
          -.0014301058
          -.0012813370
          -.0010175121
          -.0012037168
          -.0011172382
          -.0011837247
          -.0010315526
          -.0007796102
          0.0002136735
          0.0036200825
          0.0033851417
          -.0008555969
          0.0111650191
          0.0137577550
          0.0305958651
          0.0883591026
          0.0833031982
          0.0173814669
          0.1601921171
          0.1791205406
          0.3784670532
          0.6781687140
          0.6625607014
          0.1827066541
          -.0014530165
          -.0012274144
          -.0011440769
          -.0014394235
          -.0013492765
          -.0010521248
          -.0012443609
          -.0011521555
          -.0012305900
          -.0010667172
          -.0008116078
          0.0001977505
          0.0036416431
          0.0033997227
          -.0008887053
          0.0111716678
          0.0139796454
          0.0309146978
          0.0900396034
          0.0846409649
          0.0176739097
          0.1620714664
          0.1831837595
          0.3851619959
          0.6981303692
          0.6763495207
          0.1872660667
          -.0013455235
          -.0011301464
          -.0011695551
          -.0010692538
          -.0008610205
          0.0001683081
          0.0036065348
          0.0033562474
          -.0009183991
          0.0110202767
          0.0139799677
          0.0307654738
          0.0903217494
          0.0846609473
          0.0176929887
          0.1614269018
          0.1843984276
          0.3858517408
          0.7072674036
          0.6795604825
          0.1889423430
          0.0034914634
          0.0034396374
          -.0009661149
          0.0116321063
          0.0138344951
          0.0310753994
          0.0892393291
          0.0836497545
          0.0175514035
          0.1588248312
          0.1827156842
          0.3807752728
          0.7053490877
          0.6722195148
          0.1876972914
          0.0892451108
          0.0927668363
          0.0200714357
          0.1736034602
          0.1826443672
          0.3851918280
          0.6917591691
          0.6584036350
          0.1867986470
          0.6824431419
          0.7261734605
          0.2665681541
          0.2451046258
          0.6007234454
          0.7264431119
          0.3766809702
          0.1797995567
          0.1153289899
          0.0005359165
          0.0556282997
          0.0917937383
          0.0248511024
          0.0044087535
          0.0017216783
          -.0022116539
          -.0002369526
          0.0009338080
          -.0010003888
          -.0013947753
          -.0010362441
          -.0011516551
          -.0012104403
          -.0011479321
          -.0013017857
          -.0011562821
          -.0009707743
          -.0011057316
          -.0011697940
          -.0010157187
          -.0012832345
          -.0011411641
          -.0009702970
          -.0011046730
          -.0011685027
          -.0010083956
          -.0012817772
          -.0011390911
          -.0009670252
          -.0010919689
          -.0011595390
          -.0010044581
          -.0012614746
          -.0011078061
          -.0009138811
          -.0009611540
          -.0010649837
          -.0009609688
          0.1657025814
          0.6245376468
          0.6662024856
          0.3784250617
          0.1584471911
          0.1199217364
          -.0083298925
          0.0550199822
          0.0701575801
          0.0240489822
          0.0022395668
          0.0026034340
          -.0020819865
          -.0001229912
          0.0001984432
          -.0009916719
          -.0014088011
          -.0010636651
          -.0012385473
          -.0012123056
          -.0012020929
          -.0013522418
          -.0012562923
          -.0010189298
          -.0012285784
          -.0011803204
          -.0011564109
          -.0013387260
          -.0012496377
          -.0010131736
          -.0012206847
          -.0011712554
          -.0011537177
          -.0013190380
          -.0012262422
          -.0009664298
          -.0011367071
          -.0010820130
          -.0011344241
          0.1709945649
          0.6492919326
          0.6942192912
          0.3914237320
          0.1643584669
          0.1230346635
          -.0086380951
          0.0567354336
          0.0723711327
          0.0246231128
          0.0022925199
          0.0025743179
          -.0021517281
          -.0001644686
          0.0001852381
          -.0010429114
          -.0014685964
          -.0011028046
          -.0012938059
          -.0012577205
          -.0012557851
          -.0014009295
          -.0013107535
          -.0010516803
          -.0012759278
          -.0012162250
          -.0012084855
          -.0013682770
          -.0012814142
          -.0010011561
          -.0011915987
          -.0011233157
          -.0011880050
          0.1751441211
          0.6627497077
          0.7145251036
          0.3981474340
          0.1679438949
          0.1240704730
          -.0088488311
          0.0574340336
          0.0737126395
          0.0247765128
          0.0022838516
          0.0024968060
          -.0021984433
          -.0002072308
          0.0001462238
          -.0010783181
          -.0015078309
          -.0011209835
          -.0013229619
          -.0012764736
          -.0012933193
          -.0014082749
          -.0013232472
          -.0010222624
          -.0012286534
          -.0011498837
          -.0012265942
          0.1765137166
          0.6658646464
          0.7236390114
          0.3986552358
          0.1688962132
          0.1231757477
          -.0089228563
          0.0572411753
          0.0738943294
          0.0245714039
          0.0022383786
          0.0024175001
          -.0021966074
          -.0002213486
          0.0001080594
          -.0009970181
          -.0015059622
          -.0009960879
          -.0012479330
          -.0011606760
          -.0012868043
          0.1751710176
          0.6586396098
          0.7214559317
          0.3932422996
          0.1672541499
          0.1208549365
          -.0086016236
          0.0566247776
          0.0729811937
          0.0260610189
          0.0022296640
          0.0046663973
          -.0016077259
          0.0010619190
          0.0003590165
          0.1743557304
          0.6445723772
          0.7079118490
          0.3967655003
          0.1679010391
          0.1397029012
          0.0047197761
          0.0757598951
          0.0766217709
          0.2623282969
          0.7265690565
          0.6845797300
          0.6652095914
          0.2506297231
          0.8044983149
          0.2029805034
          0.5545496941
          0.1459155679
          0.6220339537
          0.1733669043
          0.7143000960
          0.1668487787
          0.5103848577
          0.1367162466
          0.5912132859
          0.1614400595
          0.6740680337
          0.1574008018
          0.4830740094
          0.1290849000
          0.5558029413
          0.1519968957
          0.6368224621
          0.1481670737
          0.4533561766
          0.1204878092
          0.5181805491
          0.1416404396
          0.5968592763
          0.1382305324
          0.4218239486
          0.1114697158
          0.4787192047
          0.1309110671
          0.5545222163
          0.1279754490
          0.3892660439
          0.1032313406
          0.4400045276
          0.1229885370
          0.5098208785
          0.1218865067
          0.3625655770
          0.1074137315
          0.4267542660
          0.1377532184
          0.4614560306
          0.0762437582
          -.0096162716
          0.1123665720
          0.0018598381
          0.0516780503
          0.0016988777
          0.0672713593
          -.0146612898
          0.0851031244
          -.0007463493
          0.0463140160
          0.0022624857
          0.0637006909
          -.0138587095
          0.0796001926
          -.0006813207
          0.0436482131
          0.0020848769
          0.0595790260
          -.0130466446
          0.0748084411
          -.0006703041
          0.0406829007
          0.0018538050
          0.0552634411
          -.0121870562
          0.0696428493
          -.0006602933
          0.0377254933
          0.0018260041
          0.0517851152
          -.0107133184
          0.0644447058
          -.0002333745
          0.0371959433
          0.0043665105
          0.0598172843
          -.0058169290
          0.0621650517
          -.0008774770
          -.0034411773
          0.0003653471
          -.0022246123
          -.0012699887
          -.0016862940
          -.0008420493
          -.0033297678
          -.0010176220
          -.0021741164
          -.0012018739
          -.0015509469
          -.0007999163
          -.0031187134
          -.0009596464
          -.0020448258
          -.0011423747
          -.0014624232
          -.0007809091
          -.0029210704
          -.0009283834
          -.0019207355
          -.0010793564
          -.0013537346
          -.0006628195
          -.0026809792
          -.0008730691
          -.0017627114
          -.0008056730
          -.0010740322
          0.0004349905
          -.0024756412
          -.0004498569
          -.0015230422
          -.0010746566
          -.0014746301
          -.0011784500
          -.0013984373
          -.0009741099
          -.0013867681
          -.0010647244
          -.0015241097
          -.0011655279
          -.0012919875
          -.0009150157
          -.0013049073
          -.0009986524
          -.0014271243
          -.0010959867
          -.0012129151
          -.0008529612
          -.0012065725
          -.0009232995
          -.0013398841
          -.0010008879
          -.0010992392
          -.0007239018
          -.0010358123
          -.0007886745
          -.0012270671
          -.0011809673
          -.0010509306
          -.0010605908
          -.0011321144
          -.0011907833
          -.0009348585
          -.0010748613
          -.0010381317
          -.0011191795
          -.0011185937
          -.0010956450
          -.0008697459
          -.0009940494
          -.0009575228
          -.0010444785
          -.0010212288
          -.0009931476
          -.0007359193
          -.0008428242
          -.0008001038
          -.0009685962
          -.0011638686
          -.0010549038
          -.0010415654
          -.0011289889
          -.0011772191
          -.0009238300
          -.0010408266
          -.0010231442
          -.0010984679
          -.0010820254
          -.0010453755
          -.0007793876
          -.0008809894
          -.0008528804
          -.0010108432
          -.0011400590
          -.0010299798
          -.0010382526
          -.0010802000
          -.0011315061
          -.0008159062
          -.0009306938
          -.0008969243
          -.0010777975
          -.0009589574
          -.0008234641
          -.0009892229
          0.4524079561
          0.1484695673
          0.4237428606
          0.1192270145
          0.3692591488
          0.1243757755
          0.4942262471
          0.1425948888
          0.4565704763
          0.1232276410
          0.3995149732
          0.1362599880
          0.5386749506
          0.1552392691
          0.4983657300
          0.1345833540
          0.4340600669
          0.1475302279
          0.5794674754
          0.1678130627
          0.5396574140
          0.1453660131
          0.4661866724
          0.1578929424
          0.6179908514
          0.1794369221
          0.5785852671
          0.1554469615
          0.4964603186
          0.1676550061
          0.6542513967
          0.1904760301
          0.6152278781
          0.1650080830
          0.5253266096
          0.1776656508
          0.6910812855
          0.2040163279
          0.6494934559
          0.1764852256
          0.5577058196
          0.2016808391
          0.7783666849
          0.2452937067
          0.6714678407
          0.0636179820
          -.0020249239
          0.0660561845
          0.0017523379
          0.0422569960
          0.0052709798
          0.0665781796
          -.0066453889
          0.0642885193
          -.0000409046
          0.0443459302
          0.0059044557
          0.0724235028
          -.0073504313
          0.0695197433
          -.0000154283
          0.0479953326
          0.0063519236
          0.0776608884
          -.0078677908
          0.0749322027
          0.0000209957
          0.0513277538
          0.0067344951
          0.0826041400
          -.0083725266
          0.0799717903
          0.0000379663
          0.0545569956
          0.0072237658
          0.0882247239
          -.0083602136
          0.0848434940
          0.0000790283
          0.0598953962
          0.0102258809
          0.1112299338
          -.0016429499
          0.0924764276
          0.0006721685
          -.0023197103
          0.0010463871
          -.0016570857
          -.0002950960
          -.0012769412
          0.0005219284
          -.0028203612
          0.0000028693
          -.0019677009
          -.0004047850
          -.0013495572
          0.0005833135
          -.0030343072
          -.0000136782
          -.0021049581
          -.0004234464
          -.0014345786
          0.0006211856
          -.0032314740
          -.0000083672
          -.0022345297
          -.0004409536
          -.0015022863
          0.0007451604
          -.0033765910
          0.0000026288
          -.0023217050
          -.0002211169
          -.0013245282
          0.0024559346
          -.0030527348
          0.0003099395
          -.0012737507
          -.0008501238
          -.0009980737
          -.0009842117
          -.0011608887
          -.0008851508
          -.0013317915
          -.0010219055
          -.0012673063
          -.0011311382
          -.0012171234
          -.0009355666
          -.0014071371
          -.0010747772
          -.0013442440
          -.0011876870
          -.0012804163
          -.0009727659
          -.0014615685
          -.0011093178
          -.0014189557
          -.0012090923
          -.0012896748
          -.0009352711
          -.0013642842
          -.0010130178
          -.0014347860
          -.0010840837
          -.0008559600
          -.0007960029
          -.0009991704
          -.0010597609
          -.0008884353
          -.0011109933
          -.0010246045
          -.0010059740
          -.0011387561
          -.0010928449
          -.0009244800
          -.0011431198
          -.0010541318
          -.0010498144
          -.0011534641
          -.0010977355
          -.0008921015
          -.0010965111
          -.0009755592
          -.0010598054
          -.0011251749
          -.0009087069
          -.0008277840
          -.0010537275
          -.0011036008
          -.0009253644
          -.0011282461
          -.0010639384
          -.0010382857
          -.0011590887
          -.0010903317
          -.0008946615
          -.0010777944
          -.0009832404
          -.0010412107
          -.0011650746
          -.0009447876
          -.0008753611
          -.0010733266
          -.0011125038
          -.0009000775
          -.0010838582
          -.0009912913
          -.0010511073
          -.0011713536
          -.0008569721
          -.0009315548
          0.0000000000
          0.0000000000
          0.0000000000
          0.0000000000
          0.0398459770
          0.0146151800
          0.0170016959
          0.0095643448
          0.0422859341
          0.0163122769
          0.0901686177
          0.0211529508
          0.0664926991
          0.0190117545
          0.0813761204
          0.0259442851
          0.1390095800
          0.0320410728
          0.1205332726
          0.0299875438
          0.1204373986
          0.0352430493
          0.1872059405
          0.0426851362
          0.1741458476
          0.0407753289
          0.1589677781
          0.0443832725
          0.2346778661
          0.0531469136
          0.2270568311
          0.0513996370
          0.1968938112
          0.0533874258
          0.2813712656
          0.0635424852
          0.2790607214
          0.0619873852
          0.2346043885
          0.0632942691
          0.3295401335
          0.0769332424
          0.3295806348
          0.0776505992
          0.2801774740
          0.0900658518
          0.4066055119
          0.1156322211
          0.3695366979
          0.0062104664
          -.0011837932
          0.0065505793
          -.0003408010
          0.0053275996
          0.0004003623
          0.0106433136
          -.0026429847
          0.0104100630
          -.0005970793
          0.0082795955
          0.0004939054
          0.0148915118
          -.0040035048
          0.0157000907
          -.0008802279
          0.0111094322
          0.0004673870
          0.0190525781
          -.0054125274
          0.0208506808
          -.0011879248
          0.0138786128
          0.0004436318
          0.0231770836
          -.0067824447
          0.0259146094
          -.0014895379
          0.0167217720
          0.0005690467
          0.0281076860
          -.0076675396
          0.0310581513
          -.0015037856
          0.0219871849
          0.0032760303
          0.0462274961
          -.0060362942
          0.0388658643
          -.0002769826
          -.0006516605
          -.0002412974
          -.0005376250
          -.0003676564
          -.0004776015
          -.0003441535
          -.0008008396
          -.0003692062
          -.0006612531
          -.0004453904
          -.0005738989
          -.0004686702
          -.0009867528
          -.0005082905
          -.0007899675
          -.0005594880
          -.0006683157
          -.0005920362
          -.0011718783
          -.0006660454
          -.0009168597
          -.0006650891
          -.0007511735
          -.0006509153
          -.0013340941
          -.0008034213
          -.0010283727
          -.0006310871
          -.0007425789
          0.0000655600
          -.0016634727
          -.0006158943
          -.0005583473
          -.0004917918
          -.0004405138
          -.0005649939
          -.0005814714
          -.0005166042
          -.0006279164
          -.0005867643
          -.0005713124
          -.0006601405
          -.0006467835
          -.0005655643
          -.0007063054
          -.0006393115
          -.0006524654
          -.0007196367
          -.0007176393
          -.0006074145
          -.0007719183
          -.0006803387